# vtk DataFile Version 5.1
vtk output
ASCII

DATASET UNSTRUCTURED_GRID
POINTS 14161 float
0 0 1.1
0.125 0 1.1
0.25 0 1.1
0.375 0 1.1
0.5 0 1.1
0.625 0 1.1
0.75 0 1.1
0.875 0 1.1
1 0 1.1
1.125 0 1.1
1.25 0 1.1
1.375 0 1.1
1.5 0 1.1
1.625 0 1.1
1.75 0 1.1
1.875 0 1.1
2 0 1.1
2.125 0 1.1
2.25 0 1.1
2.375 0 1.1
2.5 0 1.1
2.625 0 1.1
2.75 0 1.1
2.875 0 1.1
3 0 1.1
0 0.125 1.1
0.125 0.125 1.1
0.25 0.125 1.1
0.375 0.125 1.1
0.5 0.125 1.1
0.625 0.125 1.1
0.75 0.125 1.1
0.875 0.125 1.1
1 0.125 1.1
1.125 0.125 1.1
1.25 0.125 1.1
1.375 0.125 1.1
1.5 0.125 1.1
1.625 0.125 1.1
1.75 0.125 1.1
1.875 0.125 1.1
2 0.125 1.1
2.125 0.125 1.1
2.25 0.125 1.1
2.375 0.125 1.1
2.5 0.125 1.1
2.625 0.125 1.1
2.75 0.125 1.1
2.875 0.125 1.1
3 0.125 1.1
0 0.25 1.1
0.125 0.25 1.1
0.25 0.25 1.1
0.375 0.25 1.1
0.5 0.25 1.1
0.625 0.25 1.1
0.75 0.25 1.1
0.875 0.25 1.1
1 0.25 1.1
1.125 0.25 1.1
1.25 0.25 1.1
1.375 0.25 1.1
1.5 0.25 1.1
1.625 0.25 1.1
1.75 0.25 1.1
1.875 0.25 1.1
2 0.25 1.1
2.125 0.25 1.1
2.25 0.25 1.1
2.375 0.25 1.1
2.5 0.25 1.1
2.625 0.25 1.1
2.75 0.25 1.1
2.875 0.25 1.1
3 0.25 1.1
0 0.375 1.1
0.125 0.375 1.1
0.25 0.375 1.1
0.375 0.375 1.1
0.5 0.375 1.1
0.625 0.375 1.1
0.75 0.375 1.1
0.875 0.375 1.1
1 0.375 1.1
1.125 0.375 1.1
1.25 0.375 1.1
1.375 0.375 1.1
1.5 0.375 1.1
1.625 0.375 1.1
1.75 0.375 1.1
1.875 0.375 1.1
2 0.375 1.1
2.125 0.375 1.1
2.25 0.375 1.1
2.375 0.375 1.1
2.5 0.375 1.1
2.625 0.375 1.1
2.75 0.375 1.1
2.875 0.375 1.1
3 0.375 1.1
0 0.5 1.1
0.125 0.5 1.1
0.25 0.5 1.1
0.375 0.5 1.1
0.5 0.5 1.1
0.625 0.5 1.1
0.75 0.5 1.1
0.875 0.5 1.1
1 0.5 1.1
1.125 0.5 1.1
1.25 0.5 1.1
1.375 0.5 1.1
1.5 0.5 1.1
1.625 0.5 1.1
1.75 0.5 1.1
1.875 0.5 1.1
2 0.5 1.1
2.125 0.5 1.1
2.25 0.5 1.1
2.375 0.5 1.1
2.5 0.5 1.1
2.625 0.5 1.1
2.75 0.5 1.1
2.875 0.5 1.1
3 0.5 1.1
0 0.625 1.1
0.125 0.625 1.1
0.25 0.625 1.1
0.375 0.625 1.1
0.5 0.625 1.1
0.625 0.625 1.1
0.75 0.625 1.1
0.875 0.625 1.1
1 0.625 1.1
1.125 0.625 1.1
1.25 0.625 1.1
1.375 0.625 1.1
1.5 0.625 1.1
1.625 0.625 1.1
1.75 0.625 1.1
1.875 0.625 1.1
2 0.625 1.1
2.125 0.625 1.1
2.25 0.625 1.1
2.375 0.625 1.1
2.5 0.625 1.1
2.625 0.625 1.1
2.75 0.625 1.1
2.875 0.625 1.1
3 0.625 1.1
0 0.75 1.1
0.125 0.75 1.1
0.25 0.75 1.1
0.375 0.75 1.1
0.5 0.75 1.1
0.625 0.75 1.1
0.75 0.75 1.1
0.875 0.75 1.1
1 0.75 1.1
1.125 0.75 1.1
1.25 0.75 1.1
1.375 0.75 1.1
1.5 0.75 1.1
1.625 0.75 1.1
1.75 0.75 1.1
1.875 0.75 1.1
2 0.75 1.1
2.125 0.75 1.1
2.25 0.75 1.1
2.375 0.75 1.1
2.5 0.75 1.1
2.625 0.75 1.1
2.75 0.75 1.1
2.875 0.75 1.1
3 0.75 1.1
0 0.875 1.1
0.125 0.875 1.1
0.25 0.875 1.1
0.375 0.875 1.1
0.5 0.875 1.1
0.625 0.875 1.1
0.75 0.875 1.1
0.875 0.875 1.1
1 0.875 1.1
1.125 0.875 1.1
1.25 0.875 1.1
1.375 0.875 1.1
1.5 0.875 1.1
1.625 0.875 1.1
1.75 0.875 1.1
1.875 0.875 1.1
2 0.875 1.1
2.125 0.875 1.1
2.25 0.875 1.1
2.375 0.875 1.1
2.5 0.875 1.1
2.625 0.875 1.1
2.75 0.875 1.1
2.875 0.875 1.1
3 0.875 1.1
0 1 1.1
0.125 1 1.1
0.25 1 1.1
0.375 1 1.1
0.5 1 1.1
0.625 1 1.1
0.75 1 1.1
0.875 1 1.1
1 1 1.1
1.125 1 1.1
1.25 1 1.1
1.375 1 1.1
1.5 1 1.1
1.625 1 1.1
1.75 1 1.1
1.875 1 1.1
2 1 1.1
2.125 1 1.1
2.25 1 1.1
2.375 1 1.1
2.5 1 1.1
2.625 1 1.1
2.75 1 1.1
2.875 1 1.1
3 1 1.1
0 0 1.225
0.125 0 1.225
0.25 0 1.225
0.375 0 1.225
0.5 0 1.225
0.625 0 1.225
0.75 0 1.225
0.875 0 1.225
1 0 1.225
1.125 0 1.225
1.25 0 1.225
1.375 0 1.225
1.5 0 1.225
1.625 0 1.225
1.75 0 1.225
1.875 0 1.225
2 0 1.225
2.125 0 1.225
2.25 0 1.225
2.375 0 1.225
2.5 0 1.225
2.625 0 1.225
2.75 0 1.225
2.875 0 1.225
3 0 1.225
0 0.125 1.225
0.125 0.125 1.225
0.25 0.125 1.225
0.375 0.125 1.225
0.5 0.125 1.225
0.625 0.125 1.225
0.75 0.125 1.225
0.875 0.125 1.225
1 0.125 1.225
1.125 0.125 1.225
1.25 0.125 1.225
1.375 0.125 1.225
1.5 0.125 1.225
1.625 0.125 1.225
1.75 0.125 1.225
1.875 0.125 1.225
2 0.125 1.225
2.125 0.125 1.225
2.25 0.125 1.225
2.375 0.125 1.225
2.5 0.125 1.225
2.625 0.125 1.225
2.75 0.125 1.225
2.875 0.125 1.225
3 0.125 1.225
0 0.25 1.225
0.125 0.25 1.225
0.25 0.25 1.225
0.375 0.25 1.225
0.5 0.25 1.225
0.625 0.25 1.225
0.75 0.25 1.225
0.875 0.25 1.225
1 0.25 1.225
1.125 0.25 1.225
1.25 0.25 1.225
1.375 0.25 1.225
1.5 0.25 1.225
1.625 0.25 1.225
1.75 0.25 1.225
1.875 0.25 1.225
2 0.25 1.225
2.125 0.25 1.225
2.25 0.25 1.225
2.375 0.25 1.225
2.5 0.25 1.225
2.625 0.25 1.225
2.75 0.25 1.225
2.875 0.25 1.225
3 0.25 1.225
0 0.375 1.225
0.125 0.375 1.225
0.25 0.375 1.225
0.375 0.375 1.225
0.5 0.375 1.225
0.625 0.375 1.225
0.75 0.375 1.225
0.875 0.375 1.225
1 0.375 1.225
1.125 0.375 1.225
1.25 0.375 1.225
1.375 0.375 1.225
1.5 0.375 1.225
1.625 0.375 1.225
1.75 0.375 1.225
1.875 0.375 1.225
2 0.375 1.225
2.125 0.375 1.225
2.25 0.375 1.225
2.375 0.375 1.225
2.5 0.375 1.225
2.625 0.375 1.225
2.75 0.375 1.225
2.875 0.375 1.225
3 0.375 1.225
0 0.5 1.225
0.125 0.5 1.225
0.25 0.5 1.225
0.375 0.5 1.225
0.5 0.5 1.225
0.625 0.5 1.225
0.75 0.5 1.225
0.875 0.5 1.225
1 0.5 1.225
1.125 0.5 1.225
1.25 0.5 1.225
1.375 0.5 1.225
1.5 0.5 1.225
1.625 0.5 1.225
1.75 0.5 1.225
1.875 0.5 1.225
2 0.5 1.225
2.125 0.5 1.225
2.25 0.5 1.225
2.375 0.5 1.225
2.5 0.5 1.225
2.625 0.5 1.225
2.75 0.5 1.225
2.875 0.5 1.225
3 0.5 1.225
0 0.625 1.225
0.125 0.625 1.225
0.25 0.625 1.225
0.375 0.625 1.225
0.5 0.625 1.225
0.625 0.625 1.225
0.75 0.625 1.225
0.875 0.625 1.225
1 0.625 1.225
1.125 0.625 1.225
1.25 0.625 1.225
1.375 0.625 1.225
1.5 0.625 1.225
1.625 0.625 1.225
1.75 0.625 1.225
1.875 0.625 1.225
2 0.625 1.225
2.125 0.625 1.225
2.25 0.625 1.225
2.375 0.625 1.225
2.5 0.625 1.225
2.625 0.625 1.225
2.75 0.625 1.225
2.875 0.625 1.225
3 0.625 1.225
0 0.75 1.225
0.125 0.75 1.225
0.25 0.75 1.225
0.375 0.75 1.225
0.5 0.75 1.225
0.625 0.75 1.225
0.75 0.75 1.225
0.875 0.75 1.225
1 0.75 1.225
1.125 0.75 1.225
1.25 0.75 1.225
1.375 0.75 1.225
1.5 0.75 1.225
1.625 0.75 1.225
1.75 0.75 1.225
1.875 0.75 1.225
2 0.75 1.225
2.125 0.75 1.225
2.25 0.75 1.225
2.375 0.75 1.225
2.5 0.75 1.225
2.625 0.75 1.225
2.75 0.75 1.225
2.875 0.75 1.225
3 0.75 1.225
0 0.875 1.225
0.125 0.875 1.225
0.25 0.875 1.225
0.375 0.875 1.225
0.5 0.875 1.225
0.625 0.875 1.225
0.75 0.875 1.225
0.875 0.875 1.225
1 0.875 1.225
1.125 0.875 1.225
1.25 0.875 1.225
1.375 0.875 1.225
1.5 0.875 1.225
1.625 0.875 1.225
1.75 0.875 1.225
1.875 0.875 1.225
2 0.875 1.225
2.125 0.875 1.225
2.25 0.875 1.225
2.375 0.875 1.225
2.5 0.875 1.225
2.625 0.875 1.225
2.75 0.875 1.225
2.875 0.875 1.225
3 0.875 1.225
0 1 1.225
0.125 1 1.225
0.25 1 1.225
0.375 1 1.225
0.5 1 1.225
0.625 1 1.225
0.75 1 1.225
0.875 1 1.225
1 1 1.225
1.125 1 1.225
1.25 1 1.225
1.375 1 1.225
1.5 1 1.225
1.625 1 1.225
1.75 1 1.225
1.875 1 1.225
2 1 1.225
2.125 1 1.225
2.25 1 1.225
2.375 1 1.225
2.5 1 1.225
2.625 1 1.225
2.75 1 1.225
2.875 1 1.225
3 1 1.225
0 0 1.35
0.125 0 1.35
0.25 0 1.35
0.375 0 1.35
0.5 0 1.35
0.625 0 1.35
0.75 0 1.35
0.875 0 1.35
1 0 1.35
1.125 0 1.35
1.25 0 1.35
1.375 0 1.35
1.5 0 1.35
1.625 0 1.35
1.75 0 1.35
1.875 0 1.35
2 0 1.35
2.125 0 1.35
2.25 0 1.35
2.375 0 1.35
2.5 0 1.35
2.625 0 1.35
2.75 0 1.35
2.875 0 1.35
3 0 1.35
0 0.125 1.35
0.125 0.125 1.35
0.25 0.125 1.35
0.375 0.125 1.35
0.5 0.125 1.35
0.625 0.125 1.35
0.75 0.125 1.35
0.875 0.125 1.35
1 0.125 1.35
1.125 0.125 1.35
1.25 0.125 1.35
1.375 0.125 1.35
1.5 0.125 1.35
1.625 0.125 1.35
1.75 0.125 1.35
1.875 0.125 1.35
2 0.125 1.35
2.125 0.125 1.35
2.25 0.125 1.35
2.375 0.125 1.35
2.5 0.125 1.35
2.625 0.125 1.35
2.75 0.125 1.35
2.875 0.125 1.35
3 0.125 1.35
0 0.25 1.35
0.125 0.25 1.35
0.25 0.25 1.35
0.375 0.25 1.35
0.5 0.25 1.35
0.625 0.25 1.35
0.75 0.25 1.35
0.875 0.25 1.35
1 0.25 1.35
1.125 0.25 1.35
1.25 0.25 1.35
1.375 0.25 1.35
1.5 0.25 1.35
1.625 0.25 1.35
1.75 0.25 1.35
1.875 0.25 1.35
2 0.25 1.35
2.125 0.25 1.35
2.25 0.25 1.35
2.375 0.25 1.35
2.5 0.25 1.35
2.625 0.25 1.35
2.75 0.25 1.35
2.875 0.25 1.35
3 0.25 1.35
0 0.375 1.35
0.125 0.375 1.35
0.25 0.375 1.35
0.375 0.375 1.35
0.5 0.375 1.35
0.625 0.375 1.35
0.75 0.375 1.35
0.875 0.375 1.35
1 0.375 1.35
1.125 0.375 1.35
1.25 0.375 1.35
1.375 0.375 1.35
1.5 0.375 1.35
1.625 0.375 1.35
1.75 0.375 1.35
1.875 0.375 1.35
2 0.375 1.35
2.125 0.375 1.35
2.25 0.375 1.35
2.375 0.375 1.35
2.5 0.375 1.35
2.625 0.375 1.35
2.75 0.375 1.35
2.875 0.375 1.35
3 0.375 1.35
0 0.5 1.35
0.125 0.5 1.35
0.25 0.5 1.35
0.375 0.5 1.35
0.5 0.5 1.35
0.625 0.5 1.35
0.75 0.5 1.35
0.875 0.5 1.35
1 0.5 1.35
1.125 0.5 1.35
1.25 0.5 1.35
1.375 0.5 1.35
1.5 0.5 1.35
1.625 0.5 1.35
1.75 0.5 1.35
1.875 0.5 1.35
2 0.5 1.35
2.125 0.5 1.35
2.25 0.5 1.35
2.375 0.5 1.35
2.5 0.5 1.35
2.625 0.5 1.35
2.75 0.5 1.35
2.875 0.5 1.35
3 0.5 1.35
0 0.625 1.35
0.125 0.625 1.35
0.25 0.625 1.35
0.375 0.625 1.35
0.5 0.625 1.35
0.625 0.625 1.35
0.75 0.625 1.35
0.875 0.625 1.35
1 0.625 1.35
1.125 0.625 1.35
1.25 0.625 1.35
1.375 0.625 1.35
1.5 0.625 1.35
1.625 0.625 1.35
1.75 0.625 1.35
1.875 0.625 1.35
2 0.625 1.35
2.125 0.625 1.35
2.25 0.625 1.35
2.375 0.625 1.35
2.5 0.625 1.35
2.625 0.625 1.35
2.75 0.625 1.35
2.875 0.625 1.35
3 0.625 1.35
0 0.75 1.35
0.125 0.75 1.35
0.25 0.75 1.35
0.375 0.75 1.35
0.5 0.75 1.35
0.625 0.75 1.35
0.75 0.75 1.35
0.875 0.75 1.35
1 0.75 1.35
1.125 0.75 1.35
1.25 0.75 1.35
1.375 0.75 1.35
1.5 0.75 1.35
1.625 0.75 1.35
1.75 0.75 1.35
1.875 0.75 1.35
2 0.75 1.35
2.125 0.75 1.35
2.25 0.75 1.35
2.375 0.75 1.35
2.5 0.75 1.35
2.625 0.75 1.35
2.75 0.75 1.35
2.875 0.75 1.35
3 0.75 1.35
0 0.875 1.35
0.125 0.875 1.35
0.25 0.875 1.35
0.375 0.875 1.35
0.5 0.875 1.35
0.625 0.875 1.35
0.75 0.875 1.35
0.875 0.875 1.35
1 0.875 1.35
1.125 0.875 1.35
1.25 0.875 1.35
1.375 0.875 1.35
1.5 0.875 1.35
1.625 0.875 1.35
1.75 0.875 1.35
1.875 0.875 1.35
2 0.875 1.35
2.125 0.875 1.35
2.25 0.875 1.35
2.375 0.875 1.35
2.5 0.875 1.35
2.625 0.875 1.35
2.75 0.875 1.35
2.875 0.875 1.35
3 0.875 1.35
0 1 1.35
0.125 1 1.35
0.25 1 1.35
0.375 1 1.35
0.5 1 1.35
0.625 1 1.35
0.75 1 1.35
0.875 1 1.35
1 1 1.35
1.125 1 1.35
1.25 1 1.35
1.375 1 1.35
1.5 1 1.35
1.625 1 1.35
1.75 1 1.35
1.875 1 1.35
2 1 1.35
2.125 1 1.35
2.25 1 1.35
2.375 1 1.35
2.5 1 1.35
2.625 1 1.35
2.75 1 1.35
2.875 1 1.35
3 1 1.35
0 0 1.475
0.125 0 1.475
0.25 0 1.475
0.375 0 1.475
0.5 0 1.475
0.625 0 1.475
0.75 0 1.475
[...]
POINT_DATA 14161
SCALARS weights float 1
LOOKUP_TABLE default
0.072338 0.144676 0.144676 0.144676 0.144676 0.144676 0.144676 0.144676 0.144676 0.144676 0.144676 0.144676 0.144676 0.144676 0.144676 0.144676 0.144676 0.144676 0.144676 0.144676 0.144676 0.144676 0.144676 0.144676 0.072338 0.144676 0.289352 0.289352 0.289352 0.289352 0.289352 0.289352 0.289352 0.289352 0.289352 0.289352 0.289352 0.289352 0.289352 0.289352 0.289352 0.289352 0.289352 0.289352 0.289352 0.289352 0.289352 0.289352 0.289352 0.144676 0.144676 0.289352 0.289352 0.289352 0.289352 0.289352 0.289352 0.289352 0.289352 0.289352 0.289352 0.289352 0.289352 0.289352 0.289352 0.289352 0.289352 0.289352 0.289352 0.289352 0.289352 0.289352 0.289352 0.289352 0.144676 0.144676 0.289352 0.289352 0.289352 0.289352 0.289352 0.289352 0.289352 0.289352 0.289352 0.289352 0.289352 0.289352 0.289352 0.289352 0.289352 0.289352 0.289352 0.289352 0.289352 0.289352 0.289352 0.289352 0.289352 0.144676 0.144676 0.289352 0.289352 0.289352 0.289352 0.289352 0.289352 0.289352 0.289352 0.289352 0.289352 0.289352 0.289352 0.289352 0.289352 0.289352 0.289352 0.289352 0.289352 0.289352 0.289352 0.289352 0.289352 0.289352 0.144676 0.144676 0.289352 0.289352 0.289352 0.289352 0.289352 0.289352 0.289352 0.289352 0.289352 0.289352 0.289352 0.289352 0.289352 0.289352 0.289352 0.289352 0.289352 0.289352 0.289352 0.289352 0.289352 0.289352 0.289352 0.144676 0.144676 0.289352 0.289352 0.289352 0.289352 0.289352 0.289352 0.289352 0.289352 0.289352 0.289352 0.289352 0.289352 0.289352 0.289352 0.289352 0.289352 0.289352 0.289352 0.289352 0.289352 0.289352 0.289352 0.289352 0.144676 0.144676 0.289352 0.289352 0.289352 0.289352 0.289352 0.289352 0.289352 0.289352 0.289352 0.289352 0.289352 0.289352 0.289352 0.289352 0.289352 0.289352 0.289352 0.289352 0.289352 0.289352 0.289352 0.289352 0.289352 0.144676 0.072338 0.144676 0.144676 0.144676 0.144676 0.144676 0.144676 0.144676 0.144676 0.144676 0.144676 0.144676 0.144676 0.144676 0.144676 0.144676 0.144676 0.144676 0.144676 0.144676 0.144676 0.144676 0.144676 0.144676 0.072338 0.144676 0.289352 0.289352 0.289352 0.289352 0.289352 0.289352 0.289352 0.289352 0.289352 0.289352 0.289352 0.289352 0.289352 0.289352 0.289352 0.289352 0.289352 0.289352 0.289352 0.289352 0.289352 0.289352 0.289352 0.144676 0.289352 0.578704 0.578704 0.578704 0.578704 0.578704 0.578704 0.578704 0.578704 0.578704 0.578704 0.578704 0.578704 0.578704 0.578704 0.578704 0.578704 0.578704 0.578704 0.578703 0.578704 0.578704 0.578704 0.578704 0.289352 0.289352 0.578704 0.578704 0.578704 0.578704 0.578704 0.578704 0.578704 0.578704 0.578704 0.578704 0.578704 0.578704 0.578704 0.578704 0.578704 0.578704 0.578704 0.578704 0.578703 0.578704 0.578704 0.578704 0.578704 0.289352 0.289352 0.578704 0.578704 0.578704 0.578704 0.578704 0.578704 0.578704 0.578704 0.578704 0.578704 0.578704 0.578704 0.578704 0.578704 0.578704 0.578704 0.578704 0.578704 0.578703 0.578704 0.578704 0.578704 0.578704 0.289352 0.289352 0.578704 0.578704 0.578704 0.578704 0.578704 0.578704 0.578704 0.578704 0.578704 0.578704 0.578704 0.578704 0.578704 0.578704 0.578704 0.578704 0.578704 0.578703 0.578703 0.578704 0.578704 0.578703 0.578704 0.289352 0.289352 0.578704 0.578704 0.578704 0.578704 0.578704 0.578704 0.578704 0.578704 0.578704 0.578704 0.578704 0.578704 0.578704 0.578704 0.578704 0.578704 0.578704 0.578704 0.578703 0.578704 0.578704 0.578704 0.578704 0.289352 0.289352 0.578704 0.578704 0.578704 0.578704 0.578704 0.578704 0.578704 0.578704 0.578704 0.578704 0.578704 0.578704 0.578704 0.578704 0.578704 0.578704 0.578704 0.578704 0.578703 0.578704 0.578704 0.578704 0.578704 0.289352 0.289352 0.578704 0.578704 0.578704 0.578704 0.578704 0.578704 0.578704 0.578704 0.578704 0.578704 0.578704 0.578704 0.578704 0.578704 0.578704 0.578704 0.578704 0.578704 0.578703 0.578704 0.578704 0.578704 0.578704 0.289352 0.144676 0.289352 0.289352 0.289352 0.289352 0.289352 0.289352 0.289352 0.289352 0.289352 0.289352 0.289352 0.289352 0.289352 0.289352 0.289352 0.289352 0.289352 0.289352 0.289352 0.289352 0.289352 0.289352 0.289352 0.144676 0.144676 0.289352 0.289352 0.289352 0.289352 0.289352 0.289352 0.289352 0.289352 0.289352 0.289352 0.289352 0.289352 0.289352 0.289352 0.289352 0.289352 0.289352 0.289352 0.289352 0.289352 0.289352 0.289352 0.289352 0.144676 0.289352 0.578704 0.578704 0.578704 0.578704 0.578704 0.578704 0.578704 0.578704 0.578703 0.578703 0.578703 0.578704 0.578704 0.578703 0.578703 0.578704 0.578703 0.578703 0.578703 0.578703 0.578704 0.578703 0.578703 0.289352 0.289352 0.578704 0.578704 0.578704 0.578704 0.578704 0.578704 0.578704 0.578704 0.578703 0.578703 0.578703 0.578703 0.578704 0.578703 0.578703 0.578704 0.578703 0.578703 0.578703 0.578703 0.578704 0.578703 0.578703 0.289352 0.289352 0.578704 0.578704 0.578703 0.578703 0.578703 0.578704 0.578704 0.578703 0.578703 0.578703 0.578703 0.578704 0.578704 0.578703 0.578703 0.578704 0.578703 0.578703 0.578703 0.578703 0.578703 0.578703 0.578703 0.289352 0.289352 0.578703 0.578704 0.578703 0.578703 0.578703 0.578703 0.578703 0.578703 0.578703 0.578703 0.578703 0.578703 0.578703 0.578703 0.578703 0.578704 0.578703 0.578703 0.578703 0.578703 0.578703 0.578703 0.578703 0.289352 0.289352 0.578704 0.578704 0.578703 0.578703 0.578704 0.578703 0.578703 0.578703 0.578703 0.578703 0.578703 0.578703 0.578704 0.578703 0.578703 0.578704 0.578703 0.578703 0.578703 0.578703 0.578704 0.578703 0.578703 0.289352 0.289352 0.578704 0.578704 0.578704 0.578703 0.578704 0.578704 0.578704 0.578704 0.578703 0.578703 0.578703 0.578704 0.578704 0.578703 0.578703 0.578704 0.578703 0.578703 0.578703 0.578703 0.578704 0.578703 0.578703 0.289352 0.289352 0.578704 0.578704 0.578703 0.578703 0.578704 0.578704 0.578703 0.578703 0.578703 0.578703 0.578703 0.578703 0.578703 0.578703 0.578703 0.578704 0.578703 0.578703 0.578703 0.578703 0.578703 0.578703 0.578703 0.289352 0.144676 0.289352 0.289352 0.289352 0.289352 0.289352 0.289352 0.289352 0.289352 0.289352 0.289352 0.289352 0.289352 0.289352 0.289352 0.289352 0.289352 0.289352 0.289352 0.289351 0.289352 0.289352 0.289352 0.289352 0.144676 0.144676 0.289352 0.289352 0.289352 0.289352 0.289352 0.289352 0.289352 0.289352 0.289352 0.289352 0.289352 0.289352 0.289352 0.289352 0.289352 0.289352 0.289352 0.289352 0.289352 0.289352 0.289352 0.289352 0.289352 0.144676 0.289352 0.578704 0.578704 0.578704 0.578704 0.578704 0.578704 0.578704 0.578704 0.578704 0.578703 0.578704 0.578704 0.578704 0.578703 0.578703 0.578704 0.578704 0.578703 0.578703 0.578703 0.578704 0.578703 0.578704 0.289352 0.289352 0.578704 0.578704 0.578704 0.578704 0.578704 0.578704 0.578704 0.578704 0.578704 0.578703 0.578704 0.578704 0.578704 0.578704 0.578703 0.578704 0.578704 0.578703 0.578703 0.578703 0.578704 0.578703 0.578704 0.289352 0.289352 0.578704 0.578704 0.578704 0.578704 0.578704 0.578704 0.578704 0.578704 0.578703 0.578703 0.578703 0.578704 0.578704 0.578703 0.578703 0.578704 0.578703 0.578703 0.578703 0.578703 0.578704 0.578703 0.578703 0.289352 0.289352 0.578704 0.578704 0.578704 0.578703 0.578704 0.578704 0.578703 0.578703 0.578703 0.578703 0.578703 0.578704 0.578704 0.578703 0.578703 0.578704 0.578703 0.578703 0.578703 0.578703 0.578703 0.578703 0.578703 0.289352 0.289352 0.578704 0.578704 0.578704 0.578703 0.578704 0.578704 0.578704 0.578704 0.578703 0.578703 0.578703 0.578704 0.578704 0.578703 0.578703 0.578704 0.578703 0.578703 0.578703 0.578703 0.578704 0.578703 0.578703 0.289352 0.289352 0.578704 0.578704 0.578704 0.578704 0.578704 0.578704 0.578704 0.578704 0.578704 0.578703 0.578704 0.578704 0.578704 0.578704 0.578703 0.578704 0.578704 0.578703 0.578703 0.578703 0.578704 0.578703 0.578704 0.289352 0.289352 0.578704 0.578704 0.578704 0.578703 0.578704 0.578704 0.578704 0.578704 0.578703 0.578703 0.578703 0.578704 0.578704 0.578703 0.578704 0.578704 0.578703 0.578703 0.578703 0.578703 0.578704 0.578703 0.578703 0.289352 0.144676 0.289352 0.289352 0.289352 0.289352 0.289352 0.289352 0.289352 0.289352 0.289352 0.289352 0.289352 0.289352 0.289352 0.289352 0.289352 0.289352 0.289352 0.289352 0.289352 0.289352 0.289352 0.289352 0.289352 0.144676 0.144676 0.289352 0.289352 0.289352 0.289352 0.289352 0.289352 0.289352 0.289352 0.289352 0.289352 0.289352 0.289352 0.289352 0.289352 0.289352 0.289352 0.289352 0.289352 0.289352 0.289352 0.289352 0.289352 0.289352 0.144676 0.289352 0.578704 0.578704 0.578704 0.578704 0.578704 0.578704 0.578704 0.578704 0.578704 0.578704 0.578704 0.578704 0.578704 0.578704 0.578704 0.578704 0.578704 0.578704 0.578703 0.578704 0.578704 0.578704 0.578704 0.289352 0.289352 0.578704 0.578704 0.578704 0.578704 0.578704 0.578704 0.578704 0.578704 0.578704 0.578704 0.578704 0.578704 0.578704 0.578704 0.578704 0.578704 0.578704 0.578704 0.578703 0.578704 0.578704 0.578704 0.578704 0.289352 0.289352 0.578704 0.578704 0.578704 0.578704 0.578704 0.578704 0.578704 0.578704 0.578704 0.578704 0.578704 0.578704 0.578704 0.578704 0.578704 0.578704 0.578704 0.578704 0.578703 0.578704 0.578704 0.578704 0.578704 0.289352 0.289352 0.578704 0.578704 0.578704 0.578704 0.578704 0.578704 0.578704 0.578704 0.578704 0.578704 0.578704 0.578704 0.578704 0.578704 0.578704 0.578704 0.578704 0.578704 0.578703 0.578704 0.578704 0.578703 0.578704 0.289352 0.289352 0.578704 0.578704 0.578704 0.578704 0.578704 0.578704 0.578704 0.578704 0.578704 0.578704 0.578704 0.578704 0.578704 0.578704 0.578704 0.578704 0.578704 0.578704 0.578703 0.578704 0.578704 0.578704 0.578704 0.289352 0.289352 0.578704 0.578704 0.578704 0.578704 0.578704 0.578704 0.578704 0.578704 0.578704 0.578704 0.578704 0.578704 0.578704 0.578704 0.578704 0.578704 0.578704 0.578704 0.578703 0.578704 0.578704 0.578704 0.578704 0.289352 0.289352 0.578704 0.578704 0.578704 0.578704 0.578704 0.578704 0.578704 0.578704 0.578704 0.578704 0.578704 0.578704 0.578704 0.578704 0.578704 0.578704 0.578704 0.578704 0.578703 0.578704 0.578704 0.578704 0.578704 0.289352 0.144676 0.289352 0.289352 0.289352 0.289352 0.289352 0.289352 0.289352 0.289352 0.289352 0.289352 0.289352 0.289352 0.289352 0.289352 0.289352 0.289352 0.289352 0.289352 0.289352 0.289352 0.289352 0.289352 0.289352 0.144676 0.144676 0.289352 0.289352 0.289352 0.289352 0.289352 0.289352 0.289352 0.289352 0.289352 0.289352 0.289352 0.289352 0.289352 0.289352 0.289352 0.289352 0.289352 0.289352 0.289352 0.289352 0.289352 0.289352 0.289352 0.144676 0.289352 0.578704 0.578704 0.578704 0.578704 0.578704 0.578704 0.578704 0.578704 0.578704 0.578704 0.578704 0.578704 0.578704 0.578704 0.578704 0.578704 0.578704 0.578704 0.578703 0.578704 0.578704 0.578704 0.578704 0.289352 0.289352 0.578704 0.578704 0.578704 0.578704 0.578704 0.578704 0.578704 0.578704 0.578704 0.578704 0.578704 0.578704 0.578704 0.578704 0.578704 0.578704 0.578704 0.578704 0.578703 0.578704 0.578704 0.578704 0.578704 0.289352 0.289352 0.578704 0.578704 0.578704 0.578704 0.578704 0.578704 0.578704 0.578704 0.578704 0.578704 0.578704 0.578704 0.578704 0.578704 0.578704 0.578704 0.578704 0.578704 0.578703 0.578704 0.578704 0.578704 0.578704 0.289352 0.289352 0.578704 0.578704 0.578704 0.578704 0.578704 0.578704 0.578704 0.578704 0.578704 0.578704 0.578704 0.578704 0.578704 0.578704 0.578704 0.578704 0.578704 0.578704 0.578703 0.578704 0.578704 0.578703 0.578704 0.289352 0.289352 0.578704 0.578704 0.578704 0.578704 0.578704 0.578704 0.578704 0.578704 0.578704 0.578704 0.578704 0.578704 0.578704 0.578704 0.578704 0.578704 0.578704 0.578704 0.578703 0.578704 0.578704 0.578704 0.578704 0.289352 0.289352 0.578704 0.578704 0.578704 0.578704 0.578704 0.578704 0.578704 0.578704 0.578704 0.578704 0.578704 0.578704 0.578704 0.578704 0.578704 0.578704 0.578704 0.578704 0.578703 0.578704 0.578704 0.578704 0.578704 0.289352 0.289352 0.578704 0.578704 0.578704 0.578704 0.578704 0.578704 0.578704 0.578704 0.578704 0.578704 0.578704 0.578704 0.578704 0.578704 0.578704 0.578704 0.578704 0.578703 0.578703 0.578704 0.578704 0.578704 0.578704 0.289352 0.144676 0.289352 0.289352 0.289352 0.289352 0.289352 0.289352 0.289352 0.289352 0.289352 0.289352 0.289352 0.289352 0.289352 0.289352 0.289352 0.289352 0.289352 0.289352 0.289352 0.289352 0.289352 0.289352 0.289352 0.144676 0.144676 0.289352 0.289352 0.289352 0.289352 0.289352 0.289352 0.289352 0.289352 0.289352 0.289352 0.289352 0.289352 0.289352 0.289352 0.289352 0.289352 0.289352 0.289352 0.289352 0.289352 0.289352 0.289352 0.289352 0.144676 0.289352 0.578704 0.578704 0.578704 0.578704 0.578704 0.578704 0.578704 0.578704 0.578704 0.578704 0.578704 0.578704 0.578704 0.578704 0.578704 0.578704 0.578704 0.578704 0.578703 0.578704 0.578704 0.578704 0.578704 0.289352 0.289352 0.578704 0.578704 0.578704 0.578704 0.578704 0.578704 0.578704 0.578704 0.578704 0.578704 0.578704 0.578704 0.578704 0.578704 0.578704 0.578704 0.578704 0.578703 0.578703 0.578704 0.578704 0.578703 0.578704 0.289352 0.289352 0.578704 0.578704 0.578704 0.578704 0.578704 0.578704 0.578704 0.578704 0.578704 0.578704 0.578704 0.578704 0.578704 0.578704 0.578704 0.578704 0.578704 0.578703 0.578703 0.578704 0.578704 0.578703 0.578704 0.289352 0.289352 0.578704 0.578704 0.578704 0.578704 0.578704 0.578704 0.578704 0.578704 0.578704 0.578703 0.578704 0.578704 0.578704 0.578704 0.578704 0.578704 0.578704 0.578703 0.578703 0.578703 0.578704 0.578703 0.578704 0.289352 0.289352 0.578704 0.578704 0.578704 0.578704 0.578704 0.578704 0.578704 0.578704 0.578704 0.578703 0.578704 0.578704 0.578704 0.578704 0.578704 0.578704 0.578704 0.578703 0.578703 0.578704 0.578704 0.578703 0.578704 0.289352 0.289352 0.578704 0.578704 0.578704 0.578704 0.578704 0.578704 0.578704 0.578704 0.578704 0.578704 0.578704 0.578704 0.578704 0.578704 0.578704 0.578704 0.578704 0.578704 0.578703 0.578704 0.578704 0.578704 0.578704 0.289352 0.289352 0.578704 0.578704 0.578704 0.578704 0.578704 0.578704 0.578704 0.578704 0.578704 0.578704 0.578704 0.578704 0.578704 0.578704 0.578704 0.578704 0.578704 0.578703 0.578703 0.578704 0.578704 0.578703 0.578704 0.289352 0.144676 0.289352 0.289352 0.289352 0.289352 0.289352 0.289352 0.289352 0.289352 0.289352 0.289352 0.289352 0.289352 0.289352 0.289352 0.289352 0.289352 0.289352 0.289352 0.289352 0.289352 0.289352 0.289352 0.289352 0.144676 0.144676 0.289352 0.289352 0.289352 0.289352 0.289352 0.289352 0.289352 0.289352 0.289352 0.289352 0.289352 0.289352 0.289352 0.289352 0.289352 0.289352 0.289352 0.289352 0.289352 0.289352 0.289352 0.289352 0.289352 0.144676 0.289352 0.578704 0.578704 0.578703 0.578703 0.578703 0.578704 0.578704 0.578703 0.578703 0.578703 0.578703 0.578704 0.578704 0.578703 0.578703 0.578704 0.578703 0.578703 0.578703 0.578703 0.578703 0.578703 0.578703 0.289352 0.289352 0.578704 0.578704 0.578703 0.578703 0.578703 0.578703 0.578703 0.578703 0.578703 0.578703 0.578703 0.578703 0.578703 0.578703 0.578703 0.578703 0.578703 0.578703 0.578703 0.578703 0.578703 0.578703 0.578703 0.289352 0.289352 0.578704 0.578704 0.578703 0.578703 0.578703 0.578703 0.578703 0.578703 0.578703 0.578703 0.578703 0.578703 0.578703 0.578703 0.578703 0.578703 0.578703 0.578703 0.578703 0.578703 0.578703 0.578703 0.578703 0.289352 0.289352 0.578703 0.578704 0.578703 0.578703 0.578703 0.578703 0.578703 0.578703 0.578703 0.578703 0.578703 0.578703 0.578703 0.578703 0.578703 0.578703 0.578703 0.578703 0.578703 0.578703 0.578703 0.578703 0.578703 0.289352 0.289352 0.578703 0.578703 0.578703 0.578703 0.578703 0.578703 0.578703 0.578703 0.578703 0.578703 0.578703 0.578703 0.578703 0.578703 0.578703 0.578703 0.578703 0.578703 0.578703 0.578703 0.578703 0.578703 0.578703 0.289352 0.289352 0.578704 0.578704 0.578703 0.578703 0.578703 0.578703 0.578703 0.578703 0.578703 0.578703 0.578703 0.578703 0.578703 0.578703 0.578703 0.578704 0.578703 0.578703 0.578703 0.578703 0.578704 0.578703 0.578703 0.289352 0.289352 0.578703 0.578703 0.578703 0.578703 0.578703 0.578703 0.578703 0.578703 0.578703 0.578703 0.578703 0.578703 0.578703 0.578703 0.578703 0.578704 0.578703 0.578703 0.578703 0.578703 0.578703 0.578703 0.578703 0.289352 0.144676 0.289352 0.289352 0.289352 0.289352 0.289352 0.289352 0.289352 0.289352 0.289352 0.289352 0.289352 0.289352 0.289352 0.289352 0.289352 0.289352 0.289352 0.289352 0.289351 0.289352 0.289352 0.289352 0.289352 0.144676 0.0723379 0.144676 0.144676 0.144676 0.144676 0.144676 0.144676 0.144676 0.144676 0.144676 0.144676 0.144676 0.144676 0.144676 0.144676 0.144676 0.144676 0.144676 0.144676 0.144676 0.144676 0.144676 0.144676 0.144676 0.0723379 0.144676 0.289352 0.289352 0.289352 0.289352 0.289352 0.289352 0.289352 0.289352 0.289352 0.289352 0.289352 0.289352 0.289352 0.289352 0.289352 0.289352 0.289352 0.289351 0.289351 0.289352 0.289352 0.289352 0.289352 0.144676 0.144676 0.289352 0.289352 0.289352 0.289352 0.289352 0.289352 0.289352 0.289352 0.289352 0.289352 0.289352 0.289352 0.289352 0.289352 0.289352 0.289352 0.289352 0.289351 0.289351 0.289352 0.289352 0.289352 0.289352 0.144676 0.144676 0.289352 0.289352 0.289352 0.289352 0.289352 0.289352 0.289352 0.289352 0.289352 0.289351 0.289352 0.289352 0.289352 0.289352 0.289352 0.289352 0.289352 0.289351 0.289351 0.289352 0.289352 0.289352 0.289352 0.144676 0.144676 0.289352 0.289352 0.289352 0.289352 0.289352 0.289352 0.289352 0.289352 0.289352 0.289351 0.289352 0.289352 0.289352 0.289352 0.289352 0.289352 0.289352 0.289351 0.289351 0.289352 0.289352 0.289352 0.289352 0.144676 0.144676 0.289352 0.289352 0.289352 0.289352 0.289352 0.289352 0.289352 0.289352 0.289352 0.289352 0.289352 0.289352 0.289352 0.289352 0.289352 0.289352 0.289352 0.289351 0.289351 0.289352 0.289352 0.289352 0.289352 0.144676 0.144676 0.289352 0.289352 0.289352 0.289352 0.289352 0.289352 0.289352 0.289352 0.289352 0.289352 0.289352 0.289352 0.289352 0.289352 0.289352 0.289352 0.289352 0.289352 0.289351 0.289352 0.289352 0.289352 0.289352 0.144676 0.144676 0.289352 0.289352 0.289352 0.289352 0.289352 0.289352 0.289352 0.289352 0.289352 0.289352 0.289352 0.289352 0.289352 0.289352 0.289352 0.289352 0.289352 0.289352 0.289351 0.289352 0.289352 0.289351 0.289352 0.144676 0.0723379 0.144676 0.144676 0.144676 0.144676 0.144676 0.144676 0.144676 0.144676 0.144676 0.144676 0.144676 0.144676 0.144676 0.144676 0.144676 0.144676 0.144676 0.144676 0.144676 0.144676 0.144676 0.144676 0.144676 0.0723379 0.072338 0.144676 0.144676 0.072338 0.072338 0.144676 0.289352 0.144676 0.144676 0.289352 0.289352 0.144676 0.072338 0.072338 0.144676 0.144676 0.072338 0.144676 0.072338 0.072338 0.144676 0.144676 0.144676 0.289352 0.144676 0.289352 0.289352 0.072338 0.072338 0.144676 0.144676 0.144676 0.072338 0.072338 0.144676 0.144676 0.144676 0.289352 0.144676 0.289352 0.289352 0.072338 0.072338 0.144676 0.144676 0.144676 0.072338 0.072338 0.144676 0.144676 0.144676 0.289352 0.144676 0.289352 0.289352 0.072338 0.072338 0.144676 0.144676 0.144676 0.072338 0.072338 0.144676 0.144676 0.144676 0.289352 0.144676 0.289352 0.289352 0.072338 0.072338 0.144676 0.144676 0.144676 0.072338 0.072338 0.144676 0.144676 0.144676 0.289352 0.144676 0.289352 0.289352 0.072338 0.072338 0.144676 0.144676 0.144676 0.072338 0.072338 0.144676 0.144676 0.144676 0.289352 0.144676 0.289352 0.289352 0.072338 0.072338 0.144676 0.144676 0.144676 0.072338 0.072338 0.144676 0.144676 0.144676 0.289352 0.144676 0.289352 0.289352 0.072338 0.072338 0.144676 0.144676 0.144676 0.072338 0.072338 0.144676 0.144676 0.144676 0.289352 0.144676 0.289352 0.289352 0.072338 0.072338 0.144676 0.144676 0.144676 0.072338 0.072338 0.144676 0.144676 0.144676 0.289352 0.144676 0.289352 0.289352 0.072338 0.072338 0.144676 0.144676 0.144676 0.072338 0.072338 0.144676 0.144676 0.144676 0.289352 0.144676 0.289352 0.289352 0.072338 0.072338 0.144676 0.144676 0.144676 0.072338 0.072338 0.144676 0.144676 0.144676 0.289352 0.144676 0.289352 0.289352 0.072338 0.072338 0.144676 0.144676 0.144676 0.072338 0.072338 0.144676 0.144676 0.144676 0.289352 0.144676 0.289352 0.289352 0.072338 0.072338 0.144676 0.144676 0.144676 0.072338 0.072338 0.144676 0.144676