# vtk DataFile Version 5.1
vtk output
ASCII

DATASET UNSTRUCTURED_GRID
POINTS 14161 float
0 0 2.2
0.125 0 2.2
0.25 0 2.2
0.375 0 2.2
0.5 0 2.2
0.625 0 2.2
0.75 0 2.2
0.875 0 2.2
1 0 2.2
1.125 0 2.2
1.25 0 2.2
1.375 0 2.2
1.5 0 2.2
1.625 0 2.2
1.75 0 2.2
1.875 0 2.2
2 0 2.2
2.125 0 2.2
2.25 0 2.2
2.375 0 2.2
2.5 0 2.2
2.625 0 2.2
2.75 0 2.2
2.875 0 2.2
3 0 2.2
0 0.125 2.2
0.125 0.125 2.2
0.25 0.125 2.2
0.375 0.125 2.2
0.5 0.125 2.2
0.625 0.125 2.2
0.75 0.125 2.2
0.875 0.125 2.2
1 0.125 2.2
1.125 0.125 2.2
1.25 0.125 2.2
1.375 0.125 2.2
1.5 0.125 2.2
1.625 0.125 2.2
1.75 0.125 2.2
1.875 0.125 2.2
2 0.125 2.2
2.125 0.125 2.2
2.25 0.125 2.2
2.375 0.125 2.2
2.5 0.125 2.2
2.625 0.125 2.2
2.75 0.125 2.2
2.875 0.125 2.2
3 0.125 2.2
0 0.25 2.2
0.125 0.25 2.2
0.25 0.25 2.2
0.375 0.25 2.2
0.5 0.25 2.2
0.625 0.25 2.2
0.75 0.25 2.2
0.875 0.25 2.2
1 0.25 2.2
1.125 0.25 2.2
1.25 0.25 2.2
1.375 0.25 2.2
1.5 0.25 2.2
1.625 0.25 2.2
1.75 0.25 2.2
1.875 0.25 2.2
2 0.25 2.2
2.125 0.25 2.2
2.25 0.25 2.2
2.375 0.25 2.2
2.5 0.25 2.2
2.625 0.25 2.2
2.75 0.25 2.2
2.875 0.25 2.2
3 0.25 2.2
0 0.375 2.2
0.125 0.375 2.2
0.25 0.375 2.2
0.375 0.375 2.2
0.5 0.375 2.2
0.625 0.375 2.2
0.75 0.375 2.2
0.875 0.375 2.2
1 0.375 2.2
1.125 0.375 2.2
1.25 0.375 2.2
1.375 0.375 2.2
1.5 0.375 2.2
1.625 0.375 2.2
1.75 0.375 2.2
1.875 0.375 2.2
2 0.375 2.2
2.125 0.375 2.2
2.25 0.375 2.2
2.375 0.375 2.2
2.5 0.375 2.2
2.625 0.375 2.2
2.75 0.375 2.2
2.875 0.375 2.2
3 0.375 2.2
0 0.5 2.2
0.125 0.5 2.2
0.25 0.5 2.2
0.375 0.5 2.2
0.5 0.5 2.2
0.625 0.5 2.2
0.75 0.5 2.2
0.875 0.5 2.2
1 0.5 2.2
1.125 0.5 2.2
1.25 0.5 2.2
1.375 0.5 2.2
1.5 0.5 2.2
1.625 0.5 2.2
1.75 0.5 2.2
1.875 0.5 2.2
2 0.5 2.2
2.125 0.5 2.2
2.25 0.5 2.2
2.375 0.5 2.2
2.5 0.5 2.2
2.625 0.5 2.2
2.75 0.5 2.2
2.875 0.5 2.2
3 0.5 2.2
0 0.625 2.2
0.125 0.625 2.2
0.25 0.625 2.2
0.375 0.625 2.2
0.5 0.625 2.2
0.625 0.625 2.2
0.75 0.625 2.2
0.875 0.625 2.2
1 0.625 2.2
1.125 0.625 2.2
1.25 0.625 2.2
1.375 0.625 2.2
1.5 0.625 2.2
1.625 0.625 2.2
1.75 0.625 2.2
1.875 0.625 2.2
2 0.625 2.2
2.125 0.625 2.2
2.25 0.625 2.2
2.375 0.625 2.2
2.5 0.625 2.2
2.625 0.625 2.2
2.75 0.625 2.2
2.875 0.625 2.2
3 0.625 2.2
0 0.75 2.2
0.125 0.75 2.2
0.25 0.75 2.2
0.375 0.75 2.2
0.5 0.75 2.2
0.625 0.75 2.2
0.75 0.75 2.2
0.875 0.75 2.2
1 0.75 2.2
1.125 0.75 2.2
1.25 0.75 2.2
1.375 0.75 2.2
1.5 0.75 2.2
1.625 0.75 2.2
1.75 0.75 2.2
1.875 0.75 2.2
2 0.75 2.2
2.125 0.75 2.2
2.25 0.75 2.2
2.375 0.75 2.2
2.5 0.75 2.2
2.625 0.75 2.2
2.75 0.75 2.2
2.875 0.75 2.2
3 0.75 2.2
0 0.875 2.2
0.125 0.875 2.2
0.25 0.875 2.2
0.375 0.875 2.2
0.5 0.875 2.2
0.625 0.875 2.2
0.75 0.875 2.2
0.875 0.875 2.2
1 0.875 2.2
1.125 0.875 2.2
1.25 0.875 2.2
1.375 0.875 2.2
1.5 0.875 2.2
1.625 0.875 2.2
1.75 0.875 2.2
1.875 0.875 2.2
2 0.875 2.2
2.125 0.875 2.2
2.25 0.875 2.2
2.375 0.875 2.2
2.5 0.875 2.2
2.625 0.875 2.2
2.75 0.875 2.2
2.875 0.875 2.2
3 0.875 2.2
0 1 2.2
0.125 1 2.2
0.25 1 2.2
0.375 1 2.2
0.5 1 2.2
0.625 1 2.2
0.75 1 2.2
0.875 1 2.2
1 1 2.2
1.125 1 2.2
1.25 1 2.2
1.375 1 2.2
1.5 1 2.2
1.625 1 2.2
1.75 1 2.2
1.875 1 2.2
2 1 2.2
2.125 1 2.2
2.25 1 2.2
2.375 1 2.2
2.5 1 2.2
2.625 1 2.2
2.75 1 2.2
2.875 1 2.2
3 1 2.2
0 0 2.325
0.125 0 2.325
0.25 0 2.325
0.375 0 2.325
0.5 0 2.325
0.625 0 2.325
0.75 0 2.325
0.875 0 2.325
1 0 2.325
1.125 0 2.325
1.25 0 2.325
1.375 0 2.325
1.5 0 2.325
1.625 0 2.325
1.75 0 2.325
1.875 0 2.325
2 0 2.325
2.125 0 2.325
2.25 0 2.325
2.375 0 2.325
2.5 0 2.325
2.625 0 2.325
2.75 0 2.325
2.875 0 2.325
3 0 2.325
0 0.125 2.325
0.125 0.125 2.325
0.25 0.125 2.325
0.375 0.125 2.325
0.5 0.125 2.325
0.625 0.125 2.325
0.75 0.125 2.325
0.875 0.125 2.325
1 0.125 2.325
1.125 0.125 2.325
1.25 0.125 2.325
1.375 0.125 2.325
1.5 0.125 2.325
1.625 0.125 2.325
1.75 0.125 2.325
1.875 0.125 2.325
2 0.125 2.325
2.125 0.125 2.325
2.25 0.125 2.325
2.375 0.125 2.325
2.5 0.125 2.325
2.625 0.125 2.325
2.75 0.125 2.325
2.875 0.125 2.325
3 0.125 2.325
0 0.25 2.325
0.125 0.25 2.325
0.25 0.25 2.325
0.375 0.25 2.325
0.5 0.25 2.325
0.625 0.25 2.325
0.75 0.25 2.325
0.875 0.25 2.325
1 0.25 2.325
1.125 0.25 2.325
1.25 0.25 2.325
1.375 0.25 2.325
1.5 0.25 2.325
1.625 0.25 2.325
1.75 0.25 2.325
1.875 0.25 2.325
2 0.25 2.325
2.125 0.25 2.325
2.25 0.25 2.325
2.375 0.25 2.325
2.5 0.25 2.325
2.625 0.25 2.325
2.75 0.25 2.325
2.875 0.25 2.325
3 0.25 2.325
0 0.375 2.325
0.125 0.375 2.325
0.25 0.375 2.325
0.375 0.375 2.325
0.5 0.375 2.325
0.625 0.375 2.325
0.75 0.375 2.325
0.875 0.375 2.325
1 0.375 2.325
1.125 0.375 2.325
1.25 0.375 2.325
1.375 0.375 2.325
1.5 0.375 2.325
1.625 0.375 2.325
1.75 0.375 2.325
1.875 0.375 2.325
2 0.375 2.325
2.125 0.375 2.325
2.25 0.375 2.325
2.375 0.375 2.325
2.5 0.375 2.325
2.625 0.375 2.325
2.75 0.375 2.325
2.875 0.375 2.325
3 0.375 2.325
0 0.5 2.325
0.125 0.5 2.325
0.25 0.5 2.325
0.375 0.5 2.325
0.5 0.5 2.325
0.625 0.5 2.325
0.75 0.5 2.325
0.875 0.5 2.325
1 0.5 2.325
1.125 0.5 2.325
1.25 0.5 2.325
1.375 0.5 2.325
1.5 0.5 2.325
1.625 0.5 2.325
1.75 0.5 2.325
1.875 0.5 2.325
2 0.5 2.325
2.125 0.5 2.325
2.25 0.5 2.325
2.375 0.5 2.325
2.5 0.5 2.325
2.625 0.5 2.325
2.75 0.5 2.325
2.875 0.5 2.325
3 0.5 2.325
0 0.625 2.325
0.125 0.625 2.325
0.25 0.625 2.325
0.375 0.625 2.325
0.5 0.625 2.325
0.625 0.625 2.325
0.75 0.625 2.325
0.875 0.625 2.325
1 0.625 2.325
1.125 0.625 2.325
1.25 0.625 2.325
1.375 0.625 2.325
1.5 0.625 2.325
1.625 0.625 2.325
1.75 0.625 2.325
1.875 0.625 2.325
2 0.625 2.325
2.125 0.625 2.325
2.25 0.625 2.325
2.375 0.625 2.325
2.5 0.625 2.325
2.625 0.625 2.325
2.75 0.625 2.325
2.875 0.625 2.325
3 0.625 2.325
0 0.75 2.325
0.125 0.75 2.325
0.25 0.75 2.325
0.375 0.75 2.325
0.5 0.75 2.325
0.625 0.75 2.325
0.75 0.75 2.325
0.875 0.75 2.325
1 0.75 2.325
1.125 0.75 2.325
1.25 0.75 2.325
1.375 0.75 2.325
1.5 0.75 2.325
1.625 0.75 2.325
1.75 0.75 2.325
1.875 0.75 2.325
2 0.75 2.325
2.125 0.75 2.325
2.25 0.75 2.325
2.375 0.75 2.325
2.5 0.75 2.325
2.625 0.75 2.325
2.75 0.75 2.325
2.875 0.75 2.325
3 0.75 2.325
0 0.875 2.325
0.125 0.875 2.325
0.25 0.875 2.325
0.375 0.875 2.325
0.5 0.875 2.325
0.625 0.875 2.325
0.75 0.875 2.325
0.875 0.875 2.325
1 0.875 2.325
1.125 0.875 2.325
1.25 0.875 2.325
1.375 0.875 2.325
1.5 0.875 2.325
1.625 0.875 2.325
1.75 0.875 2.325
1.875 0.875 2.325
2 0.875 2.325
2.125 0.875 2.325
2.25 0.875 2.325
2.375 0.875 2.325
2.5 0.875 2.325
2.625 0.875 2.325
2.75 0.875 2.325
2.875 0.875 2.325
3 0.875 2.325
0 1 2.325
0.125 1 2.325
0.25 1 2.325
0.375 1 2.325
0.5 1 2.325
0.625 1 2.325
0.75 1 2.325
0.875 1 2.325
1 1 2.325
1.125 1 2.325
1.25 1 2.325
1.375 1 2.325
1.5 1 2.325
1.625 1 2.325
1.75 1 2.325
1.875 1 2.325
2 1 2.325
2.125 1 2.325
2.25 1 2.325
2.375 1 2.325
2.5 1 2.325
2.625 1 2.325
2.75 1 2.325
2.875 1 2.325
3 1 2.325
0 0 2.45
0.125 0 2.45
0.25 0 2.45
0.375 0 2.45
0.5 0 2.45
0.625 0 2.45
0.75 0 2.45
0.875 0 2.45
1 0 2.45
1.125 0 2.45
1.25 0 2.45
1.375 0 2.45
1.5 0 2.45
1.625 0 2.45
1.75 0 2.45
1.875 0 2.45
2 0 2.45
2.125 0 2.45
2.25 0 2.45
2.375 0 2.45
2.5 0 2.45
2.625 0 2.45
2.75 0 2.45
2.875 0 2.45
3 0 2.45
0 0.125 2.45
0.125 0.125 2.45
0.25 0.125 2.45
0.375 0.125 2.45
0.5 0.125 2.45
0.625 0.125 2.45
0.75 0.125 2.45
0.875 0.125 2.45
1 0.125 2.45
1.125 0.125 2.45
1.25 0.125 2.45
1.375 0.125 2.45
1.5 0.125 2.45
1.625 0.125 2.45
1.75 0.125 2.45
1.875 0.125 2.45
2 0.125 2.45
2.125 0.125 2.45
2.25 0.125 2.45
2.375 0.125 2.45
2.5 0.125 2.45
2.625 0.125 2.45
2.75 0.125 2.45
2.875 0.125 2.45
3 0.125 2.45
0 0.25 2.45
0.125 0.25 2.45
0.25 0.25 2.45
0.375 0.25 2.45
0.5 0.25 2.45
0.625 0.25 2.45
0.75 0.25 2.45
0.875 0.25 2.45
1 0.25 2.45
1.125 0.25 2.45
1.25 0.25 2.45
1.375 0.25 2.45
1.5 0.25 2.45
1.625 0.25 2.45
1.75 0.25 2.45
1.875 0.25 2.45
2 0.25 2.45
2.125 0.25 2.45
2.25 0.25 2.45
2.375 0.25 2.45
2.5 0.25 2.45
2.625 0.25 2.45
2.75 0.25 2.45
2.875 0.25 2.45
3 0.25 2.45
0 0.375 2.45
0.125 0.375 2.45
0.25 0.375 2.45
0.375 0.375 2.45
0.5 0.375 2.45
0.625 0.375 2.45
0.75 0.375 2.45
0.875 0.375 2.45
1 0.375 2.45
1.125 0.375 2.45
1.25 0.375 2.45
1.375 0.375 2.45
1.5 0.375 2.45
1.625 0.375 2.45
1.75 0.375 2.45
1.875 0.375 2.45
2 0.375 2.45
2.125 0.375 2.45
2.25 0.375 2.45
2.375 0.375 2.45
2.5 0.375 2.45
2.625 0.375 2.45
2.75 0.375 2.45
2.875 0.375 2.45
3 0.375 2.45
0 0.5 2.45
0.125 0.5 2.45
0.25 0.5 2.45
0.375 0.5 2.45
0.5 0.5 2.45
0.625 0.5 2.45
0.75 0.5 2.45
0.875 0.5 2.45
1 0.5 2.45
1.125 0.5 2.45
1.25 0.5 2.45
1.375 0.5 2.45
1.5 0.5 2.45
1.625 0.5 2.45
1.75 0.5 2.45
1.875 0.5 2.45
2 0.5 2.45
2.125 0.5 2.45
2.25 0.5 2.45
2.375 0.5 2.45
2.5 0.5 2.45
2.625 0.5 2.45
2.75 0.5 2.45
2.875 0.5 2.45
3 0.5 2.45
0 0.625 2.45
0.125 0.625 2.45
0.25 0.625 2.45
0.375 0.625 2.45
0.5 0.625 2.45
0.625 0.625 2.45
0.75 0.625 2.45
0.875 0.625 2.45
1 0.625 2.45
1.125 0.625 2.45
1.25 0.625 2.45
1.375 0.625 2.45
1.5 0.625 2.45
1.625 0.625 2.45
1.75 0.625 2.45
1.875 0.625 2.45
2 0.625 2.45
2.125 0.625 2.45
2.25 0.625 2.45
2.375 0.625 2.45
2.5 0.625 2.45
2.625 0.625 2.45
2.75 0.625 2.45
2.875 0.625 2.45
3 0.625 2.45
0 0.75 2.45
0.125 0.75 2.45
0.25 0.75 2.45
0.375 0.75 2.45
0.5 0.75 2.45
0.625 0.75 2.45
0.75 0.75 2.45
0.875 0.75 2.45
1 0.75 2.45
1.125 0.75 2.45
1.25 0.75 2.45
1.375 0.75 2.45
1.5 0.75 2.45
1.625 0.75 2.45
1.75 0.75 2.45
1.875 0.75 2.45
2 0.75 2.45
2.125 0.75 2.45
2.25 0.75 2.45
2.375 0.75 2.45
2.5 0.75 2.45
2.625 0.75 2.45
2.75 0.75 2.45
2.875 0.75 2.45
3 0.75 2.45
0 0.875 2.45
0.125 0.875 2.45
0.25 0.875 2.45
0.375 0.875 2.45
0.5 0.875 2.45
0.625 0.875 2.45
0.75 0.875 2.45
0.875 0.875 2.45
1 0.875 2.45
1.125 0.875 2.45
1.25 0.875 2.45
1.375 0.875 2.45
1.5 0.875 2.45
1.625 0.875 2.45
1.75 0.875 2.45
1.875 0.875 2.45
2 0.875 2.45
2.125 0.875 2.45
2.25 0.875 2.45
2.375 0.875 2.45
2.5 0.875 2.45
2.625 0.875 2.45
2.75 0.875 2.45
2.875 0.875 2.45
3 0.875 2.45
0 1 2.45
0.125 1 2.45
0.25 1 2.45
0.375 1 2.45
0.5 1 2.45
0.625 1 2.45
0.75 1 2.45
0.875 1 2.45
1 1 2.45
1.125 1 2.45
1.25 1 2.45
1.375 1 2.45
1.5 1 2.45
1.625 1 2.45
1.75 1 2.45
1.875 1 2.45
2 1 2.45
2.125 1 2.45
2.25 1 2.45
2.375 1 2.45
2.5 1 2.45
2.625 1 2.45
2.75 1 2.45
2.875 1 2.45
3 1 2.45
0 0 2.575
0.125 0 2.575
0.25 0 2.575
0.375 0 2.575
0.5 0 2.575
0.625 0 2.575
0.75 0 2.575
[...]
POINT_DATA 14161
SCALARS weights float 1
LOOKUP_TABLE default
0.072338 0.144676 0.144676 0.144676 0.144676 0.144676 0.144676 0.144676 0.144676 0.144676 0.144676 0.144676 0.144676 0.144676 0.144676 0.144676 0.144676 0.144676 0.144676 0.144676 0.144676 0.144676 0.144676 0.144676 0.072338 0.144676 0.289352 0.289352 0.289352 0.289352 0.289352 0.289352 0.289352 0.289352 0.289352 0.289352 0.289352 0.289352 0.289352 0.289352 0.289352 0.289352 0.289352 0.289352 0.289352 0.289352 0.289352 0.289352 0.289352 0.144676 0.144676 0.289352 0.289352 0.289352 0.289352 0.289352 0.289352 0.289352 0.289352 0.289352 0.289352 0.289352 0.289352 0.289352 0.289352 0.289352 0.289352 0.289352 0.289352 0.289352 0.289352 0.289352 0.289352 0.289352 0.144676 0.144676 0.289352 0.289352 0.289352 0.289352 0.289352 0.289352 0.289352 0.289352 0.289352 0.289352 0.289352 0.289352 0.289352 0.289352 0.289352 0.289352 0.289352 0.289352 0.289352 0.289352 0.289352 0.289352 0.289352 0.144676 0.144676 0.289352 0.289352 0.289352 0.289352 0.289352 0.289352 0.289352 0.289352 0.289352 0.289352 0.289352 0.289352 0.289352 0.289352 0.289352 0.289352 0.289352 0.289352 0.289352 0.289352 0.289352 0.289352 0.289352 0.144676 0.144676 0.289352 0.289352 0.289352 0.289352 0.289352 0.289352 0.289352 0.289352 0.289352 0.289352 0.289352 0.289352 0.289352 0.289352 0.289352 0.289352 0.289352 0.289352 0.289352 0.289352 0.289352 0.289352 0.289352 0.144676 0.144676 0.289352 0.289352 0.289352 0.289352 0.289352 0.289352 0.289352 0.289352 0.289352 0.289352 0.289352 0.289352 0.289352 0.289352 0.289352 0.289352 0.289352 0.289352 0.289352 0.289352 0.289352 0.289352 0.289352 0.144676 0.144676 0.289352 0.289352 0.289352 0.289352 0.289352 0.289352 0.289352 0.289352 0.289352 0.289352 0.289352 0.289352 0.289352 0.289352 0.289352 0.289352 0.289352 0.289352 0.289352 0.289352 0.289352 0.289352 0.289352 0.144676 0.072338 0.144676 0.144676 0.144676 0.144676 0.144676 0.144676 0.144676 0.144676 0.144676 0.144676 0.144676 0.144676 0.144676 0.144676 0.144676 0.144676 0.144676 0.144676 0.144676 0.144676 0.144676 0.144676 0.144676 0.072338 0.144676 0.289352 0.289352 0.289352 0.289352 0.289352 0.289352 0.289352 0.289352 0.289352 0.289352 0.289352 0.289352 0.289352 0.289352 0.289352 0.289352 0.289352 0.289352 0.289352 0.289352 0.289352 0.289352 0.289352 0.144676 0.289352 0.578704 0.578704 0.578704 0.578704 0.578704 0.578704 0.578704 0.578704 0.578704 0.578704 0.578704 0.578704 0.578704 0.578704 0.578704 0.578704 0.578704 0.578704 0.578704 0.578704 0.578704 0.578704 0.578704 0.289352 0.289352 0.578704 0.578704 0.578704 0.578704 0.578704 0.578704 0.578704 0.578704 0.578704 0.578704 0.578704 0.578704 0.578704 0.578704 0.578704 0.578704 0.578704 0.578704 0.578704 0.578704 0.578704 0.578704 0.578704 0.289352 0.289352 0.578704 0.578704 0.578704 0.578704 0.578704 0.578704 0.578704 0.578704 0.578704 0.578704 0.578704 0.578704 0.578704 0.578704 0.578704 0.578704 0.578704 0.578704 0.578704 0.578704 0.578704 0.578704 0.578704 0.289352 0.289352 0.578704 0.578704 0.578704 0.578704 0.578704 0.578704 0.578704 0.578704 0.578704 0.578704 0.578704 0.578704 0.578704 0.578704 0.578704 0.578704 0.578704 0.578704 0.578703 0.578704 0.578704 0.578704 0.578704 0.289352 0.289352 0.578704 0.578704 0.578704 0.578704 0.578704 0.578704 0.578704 0.578704 0.578704 0.578704 0.578704 0.578704 0.578704 0.578704 0.578704 0.578704 0.578704 0.578704 0.578704 0.578704 0.578704 0.578704 0.578704 0.289352 0.289352 0.578704 0.578704 0.578704 0.578704 0.578704 0.578704 0.578704 0.578704 0.578704 0.578704 0.578704 0.578704 0.578704 0.578704 0.578704 0.578704 0.578704 0.578704 0.578704 0.578704 0.578704 0.578704 0.578704 0.289352 0.289352 0.578704 0.578704 0.578704 0.578704 0.578704 0.578704 0.578704 0.578704 0.578704 0.578704 0.578704 0.578704 0.578704 0.578704 0.578704 0.578704 0.578704 0.578704 0.578704 0.578704 0.578704 0.578704 0.578704 0.289352 0.144676 0.289352 0.289352 0.289352 0.289352 0.289352 0.289352 0.289352 0.289352 0.289352 0.289352 0.289352 0.289352 0.289352 0.289352 0.289352 0.289352 0.289352 0.289352 0.289352 0.289352 0.289352 0.289352 0.289352 0.144676 0.144676 0.289352 0.289352 0.289352 0.289352 0.289352 0.289352 0.289352 0.289352 0.289352 0.289352 0.289352 0.289352 0.289352 0.289352 0.289352 0.289352 0.289352 0.289352 0.289352 0.289352 0.289352 0.289352 0.289352 0.144676 0.289352 0.578704 0.578704 0.578704 0.578704 0.578704 0.578704 0.578704 0.578704 0.578704 0.578704 0.578704 0.578704 0.578704 0.578704 0.578704 0.578704 0.578704 0.578704 0.578704 0.578704 0.578704 0.578704 0.578704 0.289352 0.289352 0.578704 0.578704 0.578704 0.578704 0.578704 0.578704 0.578704 0.578704 0.578704 0.578704 0.578704 0.578704 0.578704 0.578704 0.578704 0.578704 0.578704 0.578704 0.578704 0.578704 0.578704 0.578704 0.578704 0.289352 0.289352 0.578704 0.578704 0.578704 0.578704 0.578704 0.578704 0.578704 0.578704 0.578704 0.578704 0.578704 0.578704 0.578704 0.578704 0.578704 0.578704 0.578704 0.578704 0.578703 0.578704 0.578704 0.578704 0.578704 0.289352 0.289352 0.578704 0.578704 0.578704 0.578704 0.578704 0.578704 0.578704 0.578704 0.578704 0.578704 0.578704 0.578704 0.578704 0.578704 0.578704 0.578704 0.578704 0.578704 0.578703 0.578704 0.578704 0.578704 0.578704 0.289352 0.289352 0.578704 0.578704 0.578704 0.578704 0.578704 0.578704 0.578704 0.578704 0.578704 0.578704 0.578704 0.578704 0.578704 0.578704 0.578704 0.578704 0.578704 0.578704 0.578704 0.578704 0.578704 0.578704 0.578704 0.289352 0.289352 0.578704 0.578704 0.578704 0.578704 0.578704 0.578704 0.578704 0.578704 0.578704 0.578704 0.578704 0.578704 0.578704 0.578704 0.578704 0.578704 0.578704 0.578704 0.578704 0.578704 0.578704 0.578704 0.578704 0.289352 0.289352 0.578704 0.578704 0.578704 0.578704 0.578704 0.578704 0.578704 0.578704 0.578704 0.578704 0.578704 0.578704 0.578704 0.578704 0.578704 0.578704 0.578704 0.578704 0.578703 0.578704 0.578704 0.578704 0.578704 0.289352 0.144676 0.289352 0.289352 0.289352 0.289352 0.289352 0.289352 0.289352 0.289352 0.289352 0.289352 0.289352 0.289352 0.289352 0.289352 0.289352 0.289352 0.289352 0.289352 0.289352 0.289352 0.289352 0.289352 0.289352 0.144676 0.144676 0.289352 0.289352 0.289352 0.289352 0.289352 0.289352 0.289352 0.289352 0.289352 0.289352 0.289352 0.289352 0.289352 0.289352 0.289352 0.289352 0.289352 0.289352 0.289352 0.289352 0.289352 0.289352 0.289352 0.144676 0.289352 0.578704 0.578704 0.578704 0.578704 0.578704 0.578704 0.578704 0.578704 0.578704 0.578704 0.578704 0.578704 0.578704 0.578704 0.578704 0.578704 0.578704 0.578703 0.578703 0.578704 0.578704 0.578703 0.578704 0.289352 0.289352 0.578704 0.578704 0.578704 0.578704 0.578704 0.578704 0.578704 0.578704 0.578704 0.578703 0.578704 0.578704 0.578704 0.578704 0.578704 0.578704 0.578704 0.578703 0.578703 0.578704 0.578704 0.578703 0.578704 0.289352 0.289352 0.578704 0.578704 0.578704 0.578704 0.578704 0.578704 0.578704 0.578704 0.578704 0.578703 0.578704 0.578704 0.578704 0.578704 0.578704 0.578704 0.578704 0.578703 0.578703 0.578704 0.578704 0.578703 0.578704 0.289352 0.289352 0.578704 0.578704 0.578704 0.578704 0.578704 0.578704 0.578704 0.578704 0.578704 0.578703 0.578704 0.578704 0.578704 0.578704 0.578704 0.578704 0.578704 0.578703 0.578703 0.578703 0.578704 0.578703 0.578704 0.289352 0.289352 0.578704 0.578704 0.578704 0.578704 0.578704 0.578704 0.578704 0.578704 0.578704 0.578704 0.578704 0.578704 0.578704 0.578704 0.578704 0.578704 0.578704 0.578703 0.578703 0.578704 0.578704 0.578703 0.578704 0.289352 0.289352 0.578704 0.578704 0.578704 0.578704 0.578704 0.578704 0.578704 0.578704 0.578704 0.578704 0.578704 0.578704 0.578704 0.578704 0.578704 0.578704 0.578704 0.578703 0.578703 0.578704 0.578704 0.578704 0.578704 0.289352 0.289352 0.578704 0.578704 0.578704 0.578704 0.578704 0.578704 0.578704 0.578704 0.578704 0.578703 0.578704 0.578704 0.578704 0.578704 0.578704 0.578704 0.578704 0.578703 0.578703 0.578704 0.578704 0.578703 0.578704 0.289352 0.144676 0.289352 0.289352 0.289352 0.289352 0.289352 0.289352 0.289352 0.289352 0.289352 0.289352 0.289352 0.289352 0.289352 0.289352 0.289352 0.289352 0.289352 0.289352 0.289352 0.289352 0.289352 0.289352 0.289352 0.144676 0.144676 0.289352 0.289352 0.289352 0.289352 0.289352 0.289352 0.289352 0.289352 0.289352 0.289352 0.289352 0.289352 0.289352 0.289352 0.289352 0.289352 0.289352 0.289352 0.289352 0.289352 0.289352 0.289352 0.289352 0.144676 0.289352 0.578704 0.578704 0.578704 0.578704 0.578704 0.578704 0.578704 0.578704 0.578703 0.578703 0.578703 0.578704 0.578704 0.578703 0.578703 0.578704 0.578703 0.578703 0.578703 0.578703 0.578704 0.578703 0.578703 0.289352 0.289352 0.578704 0.578704 0.578704 0.578703 0.578704 0.578704 0.578704 0.578704 0.578703 0.578703 0.578703 0.578704 0.578704 0.578703 0.578703 0.578704 0.578703 0.578703 0.578703 0.578703 0.578704 0.578703 0.578703 0.289352 0.289352 0.578704 0.578704 0.578704 0.578703 0.578704 0.578704 0.578704 0.578704 0.578703 0.578703 0.578703 0.578704 0.578704 0.578703 0.578703 0.578704 0.578703 0.578703 0.578703 0.578703 0.578704 0.578703 0.578703 0.289352 0.289352 0.578704 0.578704 0.578703 0.578703 0.578704 0.578703 0.578703 0.578703 0.578703 0.578703 0.578703 0.578703 0.578703 0.578703 0.578703 0.578704 0.578703 0.578703 0.578703 0.578703 0.578703 0.578703 0.578703 0.289352 0.289352 0.578704 0.578704 0.578704 0.578703 0.578703 0.578704 0.578703 0.578703 0.578703 0.578703 0.578703 0.578703 0.578704 0.578703 0.578703 0.578704 0.578703 0.578703 0.578703 0.578703 0.578704 0.578703 0.578703 0.289352 0.289352 0.578704 0.578704 0.578704 0.578703 0.578704 0.578704 0.578704 0.578704 0.578703 0.578703 0.578703 0.578704 0.578704 0.578703 0.578703 0.578704 0.578703 0.578703 0.578703 0.578703 0.578704 0.578703 0.578703 0.289352 0.289352 0.578704 0.578704 0.578704 0.578703 0.578704 0.578704 0.578703 0.578704 0.578703 0.578703 0.578703 0.578704 0.578704 0.578703 0.578703 0.578704 0.578703 0.578703 0.578703 0.578703 0.578704 0.578703 0.578703 0.289352 0.144676 0.289352 0.289352 0.289352 0.289352 0.289352 0.289352 0.289352 0.289352 0.289352 0.289352 0.289352 0.289352 0.289352 0.289352 0.289352 0.289352 0.289352 0.289352 0.289352 0.289352 0.289352 0.289352 0.289352 0.144676 0.144676 0.289352 0.289352 0.289352 0.289352 0.289352 0.289352 0.289352 0.289352 0.289352 0.289352 0.289352 0.289352 0.289352 0.289352 0.289352 0.289352 0.289352 0.289352 0.289352 0.289352 0.289352 0.289352 0.289352 0.144676 0.289352 0.578703 0.578703 0.578703 0.578703 0.578703 0.578703 0.578703 0.578703 0.578703 0.578703 0.578703 0.578703 0.578703 0.578703 0.578703 0.578703 0.578703 0.578703 0.578703 0.578703 0.578703 0.578703 0.578703 0.289352 0.289352 0.578703 0.578703 0.578703 0.578703 0.578703 0.578703 0.578703 0.578703 0.578703 0.578703 0.578703 0.578703 0.578703 0.578703 0.578703 0.578703 0.578703 0.578703 0.578703 0.578703 0.578703 0.578703 0.578703 0.289352 0.289352 0.578703 0.578703 0.578703 0.578703 0.578703 0.578703 0.578703 0.578703 0.578703 0.578703 0.578703 0.578703 0.578703 0.578703 0.578703 0.578703 0.578703 0.578703 0.578703 0.578703 0.578703 0.578703 0.578703 0.289352 0.289352 0.578703 0.578703 0.578703 0.578703 0.578703 0.578703 0.578703 0.578703 0.578703 0.578703 0.578703 0.578703 0.578703 0.578703 0.578703 0.578703 0.578703 0.578703 0.578703 0.578703 0.578703 0.578703 0.578703 0.289352 0.289352 0.578703 0.578703 0.578703 0.578703 0.578703 0.578703 0.578703 0.578703 0.578703 0.578703 0.578703 0.578703 0.578703 0.578703 0.578703 0.578703 0.578703 0.578703 0.578703 0.578703 0.578703 0.578703 0.578703 0.289352 0.289352 0.578703 0.578703 0.578703 0.578703 0.578703 0.578703 0.578703 0.578703 0.578703 0.578703 0.578703 0.578703 0.578703 0.578703 0.578703 0.578703 0.578703 0.578703 0.578703 0.578703 0.578703 0.578703 0.578703 0.289352 0.289352 0.578703 0.578703 0.578703 0.578703 0.578703 0.578703 0.578703 0.578703 0.578703 0.578703 0.578703 0.578703 0.578703 0.578703 0.578703 0.578703 0.578703 0.578703 0.578703 0.578703 0.578703 0.578703 0.578703 0.289352 0.144676 0.289352 0.289352 0.289352 0.289352 0.289352 0.289352 0.289352 0.289352 0.289352 0.289352 0.289352 0.289352 0.289352 0.289352 0.289352 0.289352 0.289352 0.289351 0.289351 0.289352 0.289352 0.289352 0.289352 0.144676 0.144676 0.289352 0.289352 0.289352 0.289352 0.289352 0.289352 0.289352 0.289352 0.289352 0.289352 0.289352 0.289352 0.289352 0.289352 0.289352 0.289352 0.289352 0.289352 0.289352 0.289352 0.289352 0.289352 0.289352 0.144676 0.289352 0.578704 0.578704 0.578704 0.578704 0.578704 0.578704 0.578704 0.578704 0.578704 0.578704 0.578704 0.578704 0.578704 0.578704 0.578704 0.578704 0.578704 0.578704 0.578703 0.578704 0.578704 0.578704 0.578704 0.289352 0.289352 0.578704 0.578704 0.578704 0.578704 0.578704 0.578704 0.578704 0.578704 0.578704 0.578704 0.578704 0.578704 0.578704 0.578704 0.578704 0.578704 0.578704 0.578704 0.578703 0.578704 0.578704 0.578704 0.578704 0.289352 0.289352 0.578704 0.578704 0.578704 0.578704 0.578704 0.578704 0.578704 0.578704 0.578704 0.578704 0.578704 0.578704 0.578704 0.578704 0.578704 0.578704 0.578704 0.578704 0.578703 0.578704 0.578704 0.578704 0.578704 0.289352 0.289352 0.578704 0.578704 0.578704 0.578704 0.578704 0.578704 0.578704 0.578704 0.578704 0.578704 0.578704 0.578704 0.578704 0.578704 0.578704 0.578704 0.578704 0.578704 0.578703 0.578704 0.578704 0.578704 0.578704 0.289352 0.289352 0.578704 0.578704 0.578704 0.578704 0.578704 0.578704 0.578704 0.578704 0.578704 0.578704 0.578704 0.578704 0.578704 0.578704 0.578704 0.578704 0.578704 0.578704 0.578703 0.578704 0.578704 0.578704 0.578704 0.289352 0.289352 0.578704 0.578704 0.578704 0.578704 0.578704 0.578704 0.578704 0.578704 0.578704 0.578704 0.578704 0.578704 0.578704 0.578704 0.578704 0.578704 0.578704 0.578704 0.578703 0.578704 0.578704 0.578704 0.578704 0.289352 0.289352 0.578704 0.578704 0.578704 0.578704 0.578704 0.578704 0.578704 0.578704 0.578704 0.578704 0.578704 0.578704 0.578704 0.578704 0.578704 0.578704 0.578704 0.578704 0.578703 0.578704 0.578704 0.578704 0.578704 0.289352 0.144676 0.289352 0.289352 0.289352 0.289352 0.289352 0.289352 0.289352 0.289352 0.289352 0.289352 0.289352 0.289352 0.289352 0.289352 0.289352 0.289352 0.289352 0.289352 0.289352 0.289352 0.289352 0.289352 0.289352 0.144676 0.144676 0.289352 0.289352 0.289352 0.289352 0.289352 0.289352 0.289352 0.289352 0.289352 0.289352 0.289352 0.289352 0.289352 0.289352 0.289352 0.289352 0.289352 0.289352 0.289352 0.289352 0.289352 0.289352 0.289352 0.144676 0.289352 0.578704 0.578704 0.578704 0.578704 0.578704 0.578704 0.578704 0.578704 0.578704 0.578704 0.578704 0.578704 0.578704 0.578704 0.578704 0.578704 0.578704 0.578704 0.578704 0.578704 0.578704 0.578704 0.578704 0.289352 0.289352 0.578704 0.578704 0.578704 0.578704 0.578704 0.578704 0.578704 0.578704 0.578704 0.578704 0.578704 0.578704 0.578704 0.578704 0.578704 0.578704 0.578704 0.578704 0.578704 0.578704 0.578704 0.578704 0.578704 0.289352 0.289352 0.578704 0.578704 0.578704 0.578704 0.578704 0.578704 0.578704 0.578704 0.578704 0.578704 0.578704 0.578704 0.578704 0.578704 0.578704 0.578704 0.578704 0.578704 0.578704 0.578704 0.578704 0.578704 0.578704 0.289352 0.289352 0.578704 0.578704 0.578704 0.578704 0.578704 0.578704 0.578704 0.578704 0.578704 0.578704 0.578704 0.578704 0.578704 0.578704 0.578704 0.578704 0.578704 0.578704 0.578704 0.578704 0.578704 0.578704 0.578704 0.289352 0.289352 0.578704 0.578704 0.578704 0.578704 0.578704 0.578704 0.578704 0.578704 0.578704 0.578704 0.578704 0.578704 0.578704 0.578704 0.578704 0.578704 0.578704 0.578704 0.578704 0.578704 0.578704 0.578704 0.578704 0.289352 0.289352 0.578704 0.578704 0.578704 0.578704 0.578704 0.578704 0.578704 0.578704 0.578704 0.578704 0.578704 0.578704 0.578704 0.578704 0.578704 0.578704 0.578704 0.578704 0.578704 0.578704 0.578704 0.578704 0.578704 0.289352 0.289352 0.578704 0.578704 0.578704 0.578704 0.578704 0.578704 0.578704 0.578704 0.578704 0.578704 0.578704 0.578704 0.578704 0.578704 0.578704 0.578704 0.578704 0.578704 0.578704 0.578704 0.578704 0.578704 0.578704 0.289352 0.144676 0.289352 0.289352 0.289352 0.289352 0.289352 0.289352 0.289352 0.289352 0.289352 0.289352 0.289352 0.289352 0.289352 0.289352 0.289352 0.289352 0.289352 0.289352 0.289352 0.289352 0.289352 0.289352 0.289352 0.144676 0.072338 0.144676 0.144676 0.144676 0.144676 0.144676 0.144676 0.144676 0.144676 0.144676 0.144676 0.144676 0.144676 0.144676 0.144676 0.144676 0.144676 0.144676 0.144676 0.144676 0.144676 0.144676 0.144676 0.144676 0.072338 0.144676 0.289352 0.289352 0.289352 0.289352 0.289352 0.289352 0.289352 0.289352 0.289352 0.289352 0.289352 0.289352 0.289352 0.289352 0.289352 0.289352 0.289352 0.289352 0.289352 0.289352 0.289352 0.289352 0.289352 0.144676 0.144676 0.289352 0.289352 0.289352 0.289352 0.289352 0.289352 0.289352 0.289352 0.289352 0.289352 0.289352 0.289352 0.289352 0.289352 0.289352 0.289352 0.289352 0.289352 0.289352 0.289352 0.289352 0.289352 0.289352 0.144676 0.144676 0.289352 0.289352 0.289352 0.289352 0.289352 0.289352 0.289352 0.289352 0.289352 0.289352 0.289352 0.289352 0.289352 0.289352 0.289352 0.289352 0.289352 0.289352 0.289352 0.289352 0.289352 0.289352 0.289352 0.144676 0.144676 0.289352 0.289352 0.289352 0.289352 0.289352 0.289352 0.289352 0.289352 0.289352 0.289352 0.289352 0.289352 0.289352 0.289352 0.289352 0.289352 0.289352 0.289352 0.289352 0.289352 0.289352 0.289352 0.289352 0.144676 0.144676 0.289352 0.289352 0.289352 0.289352 0.289352 0.289352 0.289352 0.289352 0.289352 0.289352 0.289352 0.289352 0.289352 0.289352 0.289352 0.289352 0.289352 0.289352 0.289352 0.289352 0.289352 0.289352 0.289352 0.144676 0.144676 0.289352 0.289352 0.289352 0.289352 0.289352 0.289352 0.289352 0.289352 0.289352 0.289352 0.289352 0.289352 0.289352 0.289352 0.289352 0.289352 0.289352 0.289352 0.289352 0.289352 0.289352 0.289352 0.289352 0.144676 0.144676 0.289352 0.289352 0.289352 0.289352 0.289352 0.289352 0.289352 0.289352 0.289352 0.289352 0.289352 0.289352 0.289352 0.289352 0.289352 0.289352 0.289352 0.289352 0.289352 0.289352 0.289352 0.289352 0.289352 0.144676 0.072338 0.144676 0.144676 0.144676 0.144676 0.144676 0.144676 0.144676 0.144676 0.144676 0.144676 0.144676 0.144676 0.144676 0.144676 0.144676 0.144676 0.144676 0.144676 0.144676 0.144676 0.144676 0.144676 0.144676 0.072338 0.072338 0.144676 0.144676 0.072338 0.072338 0.144676 0.289352 0.144676 0.144676 0.289352 0.289352 0.144676 0.072338 0.072338 0.144676 0.144676 0.072338 0.144676 0.072338 0.072338 0.144676 0.144676 0.144676 0.289352 0.144676 0.289352 0.289352 0.072338 0.072338 0.144676 0.144676 0.144676 0.072338 0.072338 0.144676 0.144676 0.144676 0.289352 0.144676 0.289352 0.289352 0.072338 0.072338 0.144676 0.144676 0.144676 0.072338 0.072338 0.144676 0.144676 0.144676 0.289352 0.144676 0.289352 0.289352 0.072338 0.072338 0.144676 0.144676 0.144676 0.072338 0.072338 0.144676 0.144676 0.144676 0.289352 0.144676 0.289352 0.289352 0.072338 0.072338 0.144676 0.144676 0.144676 0.072338 0.072338 0.144676 0.144676 0.144676 0.289352 0.144676 0.289352 0.289352 0.072338 0.072338 0.144676 0.144676 0.144676 0.072338 0.072338 0.144676 0.144676 0.144676 0.289352 0.144676 0.289352 0.289352 0.072338 0.072338 0.144676 0.144676 0.144676 0.072338 0.072338 0.144676 0.144676 0.144676 0.289352 0.144676 0.289352 0.289352 0.072338 0.072338 0.144676 0.144676 0.144676 0.072338 0.072338 0.144676 0.144676 0.144676 0.289352 0.144676 0.289352 0.289352 0.072338 0.072338 0.144676 0.144676 0.144676 0.072338 0.0723379 0.144676 0.144676 0.144676 0.289352 0.144676 0.289352 0.289352 0.0723379 0.0723379 0.144676 0.144676 0.144676 0.0723379 0.072338 0.144676 0.144676 0.144676 0.289352 0.144676 0.289352 0.289352 0.072338 0.072338 0.144676 0.144676 0.144676 0.072338 0.072338 0.144676 0.144676 0.144676 0.289352 0.144676 0.289352 0.289352 0.072338 0.072338 0.144676 0.144676 0.144676 0.072338 0.072338 0.144676 0.144676 0.144676 0.289352 0.144676 0.289352 0.289352 0.072338 0.072338 0.144676 0.144676 0.144676 0.072338 0.072338 0.144676 0.144676