# vtk DataFile Version 5.1
vtk output
ASCII

DATASET UNSTRUCTURED_GRID
POINTS 2025 float
0 0 0
0.119077 -0.015831 -0.0104653
0.232532 -0.035695 -0.0124403
0.342568 -0.0578647 -0.00973015
0.450903 -0.0824038 -0.00471041
0.558519 -0.109403 0.0014357
0.665951 -0.138796 0.00807186
0.773502 -0.17035 0.0147906
0.88135 -0.203775 0.0213129
0.989555 -0.238581 0.0273759
1.09879 -0.274816 0.0323076
1.20905 -0.312275 0.0361893
1.32029 -0.350764 0.0391269
1.43249 -0.3901 0.0411907
1.54557 -0.430094 0.0424617
1.65948 -0.4706 0.043032
1.77415 -0.511448 0.0429547
1.88952 -0.552521 0.0423218
2.00554 -0.593681 0.0411711
2.12214 -0.634824 0.039584
2.23923 -0.675857 0.0375974
2.35674 -0.716717 0.0352825
2.4746 -0.757353 0.032684
2.5927 -0.797751 0.0298933
2.71091 -0.837977 0.0270709
0 0.125 0
0.122622 0.11182 -0.00820912
0.24017 0.0942042 -0.0103661
0.354465 0.0730115 -0.00866703
0.466947 0.0484818 -0.00502778
0.57845 0.0208868 -0.000502437
0.689457 -0.00944944 0.00431525
0.800276 -0.0421657 0.00905215
0.911111 -0.0768643 0.0134514
1.02198 -0.113146 0.0175089
1.13331 -0.150768 0.0208237
1.24523 -0.189485 0.023351
1.35777 -0.229085 0.0251404
1.47095 -0.269394 0.0262381
1.58475 -0.310219 0.0267024
1.69918 -0.351421 0.026596
1.8142 -0.39285 0.0259726
1.92978 -0.434385 0.0248935
2.04589 -0.475915 0.0234056
2.16249 -0.517334 0.0215662
2.27953 -0.558565 0.0194051
2.39695 -0.599551 0.0169721
2.5147 -0.640252 0.0143133
2.63272 -0.680663 0.0114794
2.75089 -0.720846 0.00860691
0 0.25 0
0.123489 0.238011 -0.00560314
0.243909 0.222257 -0.00733523
0.361894 0.20207 -0.00644606
0.478271 0.177798 -0.0042466
0.593606 0.149932 -0.00151594
0.708254 0.118965 0.00131181
0.822442 0.0853998 0.00398156
0.936356 0.0496627 0.00635563
1.05 0.0122267 0.00848535
1.16369 -0.026544 0.0101283
1.27756 -0.0663421 0.0112262
1.39172 -0.106934 0.0117895
1.50621 -0.148127 0.0118473
1.62107 -0.189738 0.0114362
1.73633 -0.231616 0.0105919
1.85199 -0.273628 0.00936673
1.96806 -0.315649 0.00779189
2.08451 -0.357575 0.00591307
2.20135 -0.399311 0.00375752
2.31854 -0.440787 0.00136873
2.43605 -0.481948 -0.00122705
2.55385 -0.522769 -0.00400676
2.67189 -0.563229 -0.00693615
2.7901 -0.603352 -0.00994595
0 0.375 0
0.124089 0.363376 -0.00323778
0.246437 0.348647 -0.00420405
0.367364 0.329246 -0.00380784
0.487173 0.305295 -0.00288076
0.606087 0.277333 -0.00187202
0.724254 0.245966 -0.00100452
0.841793 0.211758 -0.000357495
0.958803 0.175224 3.32013e-05
1.0753 0.136877 0.000249616
1.19147 0.0971825 0.000187699
1.30748 0.0564823 -0.000196501
1.42344 0.0150432 -0.00092095
1.53945 -0.0269226 -0.00197056
1.65557 -0.0692274 -0.00332431
1.77186 -0.11172 -0.0049624
1.88835 -0.154267 -0.00685965
2.00507 -0.196741 -0.00898561
2.12205 -0.239048 -0.0113182
2.23928 -0.28109 -0.0138347
2.35675 -0.322812 -0.0165068
2.47447 -0.364157 -0.0193179
2.5924 -0.405102 -0.0222589
2.71053 -0.445625 -0.0253174
2.82882 -0.485702 -0.0284903
0 0.5 0
0.124595 0.488141 -0.000997974
0.248525 0.473735 -0.00103892
0.371979 0.45474 -0.00093068
0.494921 0.430992 -0.00112781
0.617236 0.402978 -0.00176264
0.738837 0.371306 -0.00278433
0.85969 0.336608 -0.00412425
0.979797 0.299464 -0.00569729
1.09916 0.260411 -0.00738421
1.21786 0.219988 -0.0091605
1.33608 0.178563 -0.0110662
1.45394 0.136434 -0.0131143
1.57157 0.0938268 -0.0153171
1.68905 0.0509345 -0.0176616
1.80647 0.00791953 -0.0201467
1.9239 -0.035083 -0.0227593
2.04139 -0.0779563 -0.0254894
2.15897 -0.120592 -0.0283193
2.27669 -0.162905 -0.0312446
2.39453 -0.204839 -0.0342337
2.51251 -0.246348 -0.0372954
2.63064 -0.287403 -0.0404266
2.74891 -0.327986 -0.0436339
2.86731 -0.368072 -0.0469573
0 0.625 0
0.125106 0.612341 0.00121706
0.250553 0.597691 0.00218507
0.376479 0.578684 0.00209767
0.502511 0.554923 0.000837059
0.628211 0.526765 -0.00138576
0.753228 0.494823 -0.00426708
0.877365 0.459743 -0.00755793
1.00054 0.422136 -0.0110651
1.12274 0.382556 -0.0146333
1.24395 0.341583 -0.0181163
1.36437 0.299608 -0.0215432
1.48413 0.256943 -0.0249379
1.60339 0.213832 -0.0283153
1.72226 0.170479 -0.0316834
1.84085 0.127045 -0.0350526
1.95925 0.0836764 -0.0384216
2.07753 0.040494 -0.0417851
2.19575 -0.00240032 -0.0451448
2.31397 -0.0449234 -0.0484983
2.43221 -0.0870243 -0.0518367
2.55051 -0.128658 -0.0551671
2.66886 -0.169796 -0.0585019
2.78728 -0.210436 -0.0618548
2.90579 -0.250568 -0.0652875
0 0.75 0
0.125671 0.73591 0.00352658
0.252842 0.720488 0.00553142
0.381525 0.701047 0.00520478
0.510915 0.676987 0.00281587
0.640137 0.648572 -0.00101423
0.7686 0.616365 -0.00573411
0.895992 0.580994 -0.0109372
1.02217 0.543057 -0.0163291
1.14712 0.50311 -0.0217288
1.27077 0.46175 -0.0268817
1.3933 0.419389 -0.0318095
1.5149 0.376343 -0.0365438
1.63572 0.332876 -0.0410996
1.75593 0.289189 -0.0455061
1.87565 0.245458 -0.0497784
1.99498 0.201832 -0.0539147
2.11403 0.158434 -0.0579354
2.23287 0.115365 -0.0618404
2.35158 0.0727083 -0.0656419
2.47019 0.0305102 -0.0693398
2.58877 -0.0111897 -0.0729487
2.70733 -0.0523769 -0.0764852
2.82589 -0.0930653 -0.079957
2.94448 -0.133287 -0.0834264
0 0.875 0
0.126392 0.85866 0.00611123
0.256007 0.841822 0.00902139
0.388237 0.821505 0.00813846
0.521448 0.796922 0.00443179
0.654377 0.768189 -0.00105329
0.786301 0.735752 -0.00756142
0.916861 0.700184 -0.0145768
1.04591 0.662057 -0.0217515
1.17346 0.621886 -0.0288909
1.29939 0.580304 -0.0356463
1.4239 0.537714 -0.0420265
1.54719 0.494442 -0.048073
1.66946 0.450763 -0.0538055
1.79088 0.406883 -0.0592437
1.91161 0.362991 -0.0644187
2.03177 0.319229 -0.069338
2.15147 0.275731 -0.0740138
2.27084 0.232589 -0.0784708
2.38994 0.189893 -0.0827202
2.50885 0.147676 -0.0867693
2.62764 0.105972 -0.090645
2.74634 0.0647828 -0.0943614
2.86499 0.024074 -0.0979242
2.98363 -0.0162521 -0.101366
0 1 0
0.128705 0.979767 0.00878787
0.262447 0.960863 0.0118042
0.39901 0.939457 0.00994176
0.53625 0.914331 0.004866
0.672848 0.885326 -0.00215516
0.808069 0.852749 -0.0102456
0.941581 0.817095 -0.0188417
1.07325 0.778908 -0.0275724
1.20316 0.738689 -0.0362701
1.33115 0.697033 -0.0445395
1.45743 0.654366 -0.0523269
1.58222 0.611028 -0.0596581
1.70572 0.567289 -0.0665332
1.82815 0.523377 -0.0729965
1.94967 0.479471 -0.0790674
2.07044 0.435724 -0.0847551
2.1906 0.392263 -0.0900846
2.31028 0.349185 -0.0950822
2.42959 0.306559 -0.0997643
2.54863 0.264426 -0.104154
2.66747 0.2228 -0.108267
2.78618 0.181678 -0.112129
2.90483 0.140983 -0.115753
3.02345 0.10057 -0.119133
0 0 0.125
0.117596 -0.0193008 0.119331
0.229715 -0.0381214 0.119346
0.339352 -0.0584175 0.122752
0.447912 -0.0808755 0.127876
0.556109 -0.105762 0.133822
0.664308 -0.133065 0.140081
0.772699 -0.162613 0.146339
0.881308 -0.19407 0.152433
0.990855 -0.227487 0.157484
1.10134 -0.262597 0.161493
1.21273 -0.299141 0.164535
1.32498 -0.336885 0.166703
1.43803 -0.37562 0.168087
1.55184 -0.415133 0.168751
1.66637 -0.455247 0.168777
1.78156 -0.495791 0.168234
1.89736 -0.536626 0.167189
2.01371 -0.577604 0.165699
2.13056 -0.618626 0.163827
2.24784 -0.659576 0.161619
2.36549 -0.700369 0.159124
2.48343 -0.74096 0.156404
2.60156 -0.781313 0.153535
2.71977 -0.821455 0.15067
0 0.125 0.125
0.121466 0.109713 0.119897
0.238023 0.0923412 0.119522
0.351999 0.0723819 0.121922
0.464651 0.0495405 0.125715
0.576638 0.0238302 0.13009
0.688334 -0.004576 0.134574
0.799966 -0.0353961 0.138857
0.911516 -0.0682785 0.142948
1.02344 -0.103037 0.146352
1.13584 -0.139394 0.148982
1.24877 -0.177062 0.150859
1.36224 -0.2158 0.152039
1.47623 -0.255393 0.152583
1.59076 -0.295642 0.152551
1.7058 -0.33637 0.152001
1.82133 -0.377423 0.150993
1.93735 -0.418662 0.149577
2.05381 -0.459962 0.147813
2.17068 -0.501211 0.145734
2.28793 -0.542322 0.143388
2.40551 -0.583211 0.14081
2.52338 -0.623848 0.138033
2.64146 -0.664187 0.135102
2.75969 -0.704257 0.132097
0 0.25 0.125
0.122925 0.236746 0.121552
0.242791 0.220733 0.121036
0.360604 0.201265 0.122434
0.477155 0.178315 0.124738
0.592915 0.15208 0.127347
0.708164 0.122894 0.129911
0.823082 0.0910894 0.132247
0.937646 0.0570961 0.134402
1.05216 0.0212292 0.136101
1.16676 -0.0161757 0.137262
1.28153 -0.0548152 0.13788
1.39651 -0.0944318 0.137985
1.51174 -0.134807 0.137614
1.62726 -0.17574 0.136813
1.74309 -0.217058 0.135622
1.85923 -0.25861 0.13409
1.9757 -0.30026 0.13225
2.09249 -0.341893 0.130147
2.20959 -0.383399 0.127808
2.32697 -0.4247 0.125272
2.44464 -0.465728 0.122553
2.56255 -0.506442 0.119676
2.68066 -0.546808 0.116668
2.79892 -0.586801 0.11353
0 0.375 0.125
0.123898 0.362633 0.123261
0.246163 0.347362 0.123
0.367206 0.328286 0.123595
0.487311 0.305324 0.12449
0.606673 0.278764 0.12534
0.725413 0.248991 0.126001
0.843608 0.216437 0.126413
0.961224 0.181574 0.126648
1.07843 0.144824 0.126615
1.19536 0.106561 0.126252
1.31212 0.0671064 0.125543
1.42879 0.0267403 0.124505
1.54544 -0.0143107 0.123158
1.66213 -0.0558458 0.121524
1.77892 -0.0976923 0.119632
1.89584 -0.139696 0.117513
2.01292 -0.181729 0.115196
2.13018 -0.223671 0.112698
2.24763 -0.265426 0.110052
2.36528 -0.306919 0.107276
2.48313 -0.348085 0.10438
2.60116 -0.388888 0.101378
2.71935 -0.429288 0.0982701
2.83769 -0.469253 0.0950201
0 0.5 0.125
0.124679 0.487716 0.124968
0.248971 0.472624 0.125114
0.372896 0.453654 0.125078
0.496336 0.430619 0.124661
0.619184 0.40377 0.123825
0.741359 0.373531 0.12262
0.862809 0.34039 0.121123
0.983478 0.304851 0.11946
1.1034 0.267406 0.117693
1.22271 0.228457 0.11578
1.34153 0.188349 0.113717
1.45997 0.14737 0.111493
1.57813 0.105761 0.109122
1.69608 0.0637202 0.106615
1.81392 0.0214313 0.103977
1.93171 -0.0209606 0.101227
2.04949 -0.0633114 0.0983779
2.16731 -0.105521 0.0954491
2.2852 -0.147488 0.0924574
2.40318 -0.189142 0.089406
2.52127 -0.230429 0.0863065
2.63946 -0.271307 0.083155
2.75777 -0.311755 0.0799429
2.8762 -0.35174 0.0766095
0 0.625 0.125
0.125426 0.612122 0.126675
0.251689 0.596681 0.127281
0.378451 0.577478 0.126681
0.505216 0.554179 0.125017
0.63154 0.526995 0.122545
0.757129 0.496356 0.119511
0.881811 0.462756 0.116135
1.0055 0.426702 0.112607
1.12811 0.388729 0.109127
1.2498 0.349253 0.105677
1.37067 0.308644 0.102247
1.49089 0.26719 0.0988252
[...]
POINT_DATA 2025
SCALARS scalars float 1
LOOKUP_TABLE default
0 0.0198802 0.0416419 0.0670438 0.0960371 0.128027 0.162462 0.198846 0.236762 0.275709 0.315331 0.355481 0.396056 0.436962 0.478096 0.519391 0.560743 0.602097 0.643359 0.684475 0.725393 0.766087 0.806533 0.846755 0.886855 0 0.0157086 0.0339479 0.0565649 0.0835034 0.114047 0.147515 0.18333 0.220978 0.260063 0.300162 0.341009 0.382411 0.424225 0.466299 0.508525 0.550787 0.592995 0.635066 0.676919 0.718503 0.759782 0.800738 0.841383 0.881807 0 0.01332 0.0293351 0.0501059 0.07552 0.104888 0.137531 0.172833 0.2103 0.249465 0.289878 0.331199 0.373183 0.41564 0.458391 0.501294 0.544224 0.58707 0.629736 0.672139 0.714223 0.755944 0.797284 0.838238 0.878844 0 0.012101 0.0269226 0.0465425 0.070934 0.0994988 0.131581 0.166586 0.203979 0.243255 0.283916 0.325596 0.368009 0.410931 0.454165 0.497554 0.540958 0.584253 0.62734 0.670124 0.712554 0.754577 0.796173 0.837327 0.878022 0 0.0119076 0.0263273 0.04537 0.0692038 0.0973486 0.129207 0.16416 0.201632 0.241092 0.281999 0.323973 0.366706 0.409959 0.453527 0.497237 0.540946 0.584528 0.627871 0.670884 0.713509 0.755698 0.797423 0.838668 0.879409 0 0.0127181 0.0274019 0.0463873 0.0701267 0.098297 0.130287 0.165447 0.203167 0.242896 0.284059 0.326277 0.369242 0.412708 0.456468 0.500354 0.544213 0.587917 0.631357 0.674443 0.71712 0.759337 0.801066 0.842303 0.883038 0 0.0145397 0.0301606 0.0496591 0.0738782 0.102557 0.135045 0.170655 0.208766 0.248829 0.290244 0.332641 0.375735 0.419281 0.463091 0.506992 0.550835 0.594498 0.637871 0.680868 0.723438 0.765535 0.807143 0.848271 0.888953 0 0.0175008 0.0349033 0.0557063 0.0810911 0.110782 0.1441 0.180348 0.218919 0.259326 0.300925 0.343393 0.386475 0.429941 0.473619 0.517342 0.56098 0.604402 0.647521 0.690245 0.732535 0.774356 0.815702 0.856601 0.897147 0 0.0223684 0.0427314 0.0658847 0.0931498 0.124275 0.158618 0.195557 0.234537 0.27515 0.316794 0.35916 0.402018 0.445176 0.488472 0.531768 0.574936 0.617869 0.660481 0.702704 0.744501 0.785854 0.826761 0.867294 0.907589 0 0.0214353 0.0435511 0.0684723 0.0962408 0.126528 0.158987 0.193298 0.229137 0.266083 0.303954 0.342608 0.381921 0.421788 0.462077 0.502684 0.543502 0.58444 0.625394 0.6663 0.707081 0.747679 0.788078 0.828271 0.868318 0 0.0164988 0.0352144 0.0575079 0.0833319 0.11225 0.14382 0.17762 0.213326 0.250543 0.288982 0.328395 0.368584 0.409379 0.450617 0.492159 0.533878 0.575661 0.617409 0.659027 0.70045 0.741612 0.782497 0.823079 0.863405 0 0.013851 0.0304009 0.0508817 0.0752372 0.103069 0.133904 0.167334 0.202949 0.240343 0.279157 0.319086 0.359879 0.401326 0.443236 0.485445 0.527809 0.5702 0.612514 0.654648 0.696533 0.738107 0.77934 0.820207 0.860697 0 0.0125371 0.0279742 0.0473807 0.070824 0.0979658 0.128389 0.161647 0.197281 0.234845 0.273947 0.31425 0.355466 0.397361 0.439728 0.482388 0.525184 0.567985 0.610669 0.65314 0.695324 0.737159 0.778611 0.819647 0.860236 0 0.0122886 0.0273955 0.0463933 0.0694785 0.0964128 0.126786 0.160121 0.195925 0.233709 0.273067 0.313646 0.355151 0.397333 0.439983 0.482908 0.525955 0.568973 0.611855 0.654495 0.69682 0.738772 0.780311 0.821413 0.862049 0 0.0129937 0.0284606 0.0476764 0.0710133 0.0982539 0.128958 0.162629 0.198761 0.236824 0.276423 0.317203 0.358882 0.401208 0.443977 0.486997 0.530114 0.57318 0.616086 0.65873 0.701038 0.742955 0.784456 0.825521 0.866159 0 0.0146316 0.0312057 0.0513931 0.0756298 0.103679 0.135083 0.169324 0.205923 0.244308 0.28411 0.325006 0.36673 0.409055 0.45178 0.494716 0.537721 0.580652 0.623404 0.665873 0.708002 0.749736 0.791059 0.831978 0.872556 0 0.0173825 0.0361704 0.0581821 0.0839609 0.113276 0.145669 0.180651 0.217795 0.256491 0.296418 0.337312 0.378934 0.421081 0.463563 0.506218 0.548903 0.591493 0.633884 0.675992 0.717756 0.759142 0.80014 0.840788 0.881206 0 0.023128 0.0451997 0.0696928 0.0974356 0.128252 0.161732 0.197439 0.235041 0.27394 0.313859 0.354572 0.395877 0.43761 0.4796 0.521711 0.563823 0.605814 0.647607 0.689127 0.730319 0.771169 0.811692 0.851948 0.892106 0 0.0222943 0.0443813 0.0685596 0.0950629 0.123772 0.154486 0.187001 0.220882 0.256022 0.292301 0.329579 0.367725 0.406611 0.446099 0.486058 0.526359 0.566887 0.607547 0.648218 0.688831 0.729308 0.769615 0.809713 0.849627 0 0.0165008 0.0352564 0.0570173 0.0817445 0.109199 0.139073 0.171162 0.205091 0.240631 0.277556 0.315646 0.354702 0.394541 0.43499 0.475887 0.517085 0.558456 0.599883 0.641257 0.682491 0.723519 0.76429 0.804769 0.84496 0 0.0136087 0.0300809 0.0500386 0.0733747 0.0998205 0.129097 0.160917 0.194889 0.23071 0.268088 0.306751 0.346447 0.386957 0.428079 0.469635 0.511465 0.553428 0.595397 0.637262 0.678935 0.720349 0.761449 0.802196 0.842575 0 0.012213 0.0275043 0.0464154 0.0689189 0.0948252 0.123837 0.155607 0.189703 0.225775 0.263495 0.302561 0.342687 0.38364 0.425205 0.467188 0.509421 0.551755 0.59406 0.636225 0.678161 0.719804 0.761094 0.801997 0.842486 0 0.0118932 0.0268719 0.0454828 0.067826 0.093729 0.122858 0.154834 0.189174 0.225513 0.263509 0.302845 0.343239 0.384452 0.426257 0.468461 0.510893 0.553397 0.595848 0.638132 0.680165 0.721877 0.763223 0.804172 0.844713 0 0.0124757 0.0279109 0.047019 0.0698993 0.0963379 0.125978 0.158421 0.193143 0.229775 0.267994 0.307498 0.34802 0.389324 0.431186 0.473422 0.515857 0.558342 0.600754 0.642978 0.684939 0.726572 0.767834 0.808722 0.849251 0 0.0139419 0.0307419 0.0511816 0.0752672 0.102749 0.133255 0.166408 0.201622 0.238569 0.276955 0.316525 0.357036 0.398268 0.440011 0.482085 0.524331 0.566606 0.608785 0.650775 0.692492 0.733888 0.774926 0.81563 0.85607 0 0.0169479 0.0362185 0.0587064 0.0845262 0.113426 0.145043 0.179058 0.214809 0.252035 0.290518 0.330036 0.370383 0.411362 0.452792 0.494502 0.536352 0.578208 0.619961 0.661519 0.702817 0.74381 0.784487 0.824891 0.865135 0 0.0233085 0.0459585 0.0709293 0.0987242 0.129167 0.161916 0.196768 0.233016 0.270457 0.308925 0.34824 0.388247 0.428767 0.469662 0.510778 0.551994 0.5932 0.6343 0.675213 0.7159 0.756324 0.7965 0.836508 0.876472 0 0.0226925 0.0443085 0.0674723 0.0926523 0.119878 0.149114 0.179738 0.21182 0.245324 0.280143 0.316163 0.353241 0.39123 0.429981 0.469343 0.509171 0.549332 0.5897 0.630158 0.670605 0.71095 0.751139 0.791107 0.830838 0 0.0161679 0.034477 0.0553947 0.0789302 0.104909 0.133315 0.163724 0.196015 0.230031 0.265583 0.302476 0.340504 0.379475 0.4192 0.459506 0.50023 0.541227 0.582359 0.623503 0.664564 0.705449 0.746091 0.786436 0.826471 0 0.0129908 0.0288832 0.0480038 0.0701787 0.0952683 0.123157 0.153451 0.185926 0.220335 0.256429 0.293952 0.332656 0.37232 0.412731 0.453696 0.495041 0.536615 0.578267 0.619883 0.661361 0.702613 0.743569 0.784181 0.824417 0 0.0114429 0.0260763 0.0441437 0.0656058 0.0903217 0.118073 0.148447 0.181153 0.215897 0.252388 0.290345 0.329498 0.369611 0.41045 0.451822 0.493544 0.535457 0.577412 0.619297 0.661007 0.702456 0.743582 0.78434 0.824696 0 0.0110044 0.0253166 0.0432363 0.0647449 0.0896495 0.117683 0.148365 0.18139 0.216445 0.253223 0.291451 0.330858 0.371199 0.412246 0.4538 0.495677 0.537711 0.579767 0.621726 0.663488 0.704975 0.746126 0.78691 0.827312 0 0.0114569 0.0263892 0.0450661 0.0673628 0.0930191 0.121747 0.152982 0.186422 0.221772 0.258752 0.297119 0.336611 0.376992 0.418042 0.459568 0.501387 0.543347 0.585305 0.627152 0.668791 0.710151 0.751181 0.791873 0.832245 0 0.013045 0.029571 0.0498187 0.0735469 0.100433 0.130216 0.1622 0.196126 0.231752 0.268866 0.307251 0.346676 0.386919 0.427782 0.46908 0.510646 0.552326 0.593997 0.635546 0.676892 0.717964 0.758734 0.799217 0.839459 0 0.0163383 0.0355404 0.0580284 0.0836507 0.112099 0.143184 0.176031 0.210464 0.246352 0.283531 0.32182 0.361029 0.400964 0.441455 0.482326 0.52343 0.564634 0.605815 0.646881 0.687757 0.728391 0.768766 0.808919 0.848936 0 0.0229201 0.0456024 0.0706467 0.098323 0.128386 0.160809 0.19453 0.229486 0.265608 0.302775 0.34086 0.379707 0.419165 0.459088 0.499322 0.539756 0.580267 0.62075 0.661135 0.701363 0.741397 0.781258 0.82099 0.860694 0 0.0225633 0.0433717 0.0653784 0.0892924 0.115448 0.14275 0.171527 0.201903 0.233866 0.26734 0.302201 0.338303 0.375486 0.413577 0.452412 0.491822 0.531661 0.571781 0.612048 0.65234 0.69257 0.732635 0.772464 0.81202 0 0.0155336 0.0330129 0.0528326 0.0749814 0.099754 0.126491 0.155245 0.185981 0.218584 0.252887 0.288695 0.325796 0.363998 0.403091 0.442882 0.483192 0.523867 0.564744 0.605696 0.646595 0.68735 0.727866 0.768075 0.807941 0 0.0120612 0.0269879 0.0449103 0.0657589 0.089632 0.11603 0.144851 0.175931 0.209057 0.243996 0.280504 0.318331 0.357251 0.397041 0.437495 0.478421 0.519654 0.561041 0.602444 0.643744 0.684843 0.725662 0.766133 0.806212 0 0.0103164 0.0238399 0.0407579 0.0610501 0.0846312 0.111052 0.1401 0.171533 0.205085 0.240483 0.277463 0.315754 0.355124 0.395335 0.436176 0.477456 0.519002 0.560661 0.6023 0.643801 0.685076 0.726042 0.766644 0.806839 0 0.00972622 0.0229823 0.0399423 0.0604903 0.0844389 0.111272 0.140727 0.172538 0.20643 0.24213 0.279376 0.317907 0.357478 0.397858 0.438841 0.480229 0.521855 0.563568 0.605238 0.646752 0.688026 0.728988 0.769596 0.809819 0 0.0102537 0.0243344 0.0422826 0.0638442 0.0887875 0.116406 0.146446 0.178664 0.212826 0.248699 0.286041 0.324607 0.364163 0.404493 0.445387 0.486661 0.528155 0.569717 0.611222 0.652567 0.693672 0.734482 0.77497 0.815133 0 0.0120674 0.0279949 0.0477731 0.0710015 0.0974692 0.126189 0.156958 0.189611 0.224007 0.259961 0.297265 0.3357 0.375052 0.415129 0.45573 0.496683 0.537833 0.579045 0.620203 0.661204 0.701982 0.742497 0.782737 0.822741 0 0.0155037 0.0343558 0.0566208 0.0819741 0.110363 0.140395 0.171979 0.205124 0.239749 0.275727 0.312891 0.351058 0.390049 0.429688 0.4698 0.510234 0.550845 0.591512 0.632135 0.672622 0.71292 0.753008 0.79288 0.832615 0 0.0220827 0.0445509 0.0695363 0.0970774 0.127472 0.158835 0.191324 0.225012 0.259883 0.295849 0.332797 0.370588 0.409076 0.448108 0.487548 0.527269 0.567148 0.607074 0.646969 0.68677 0.726447 0.765982 0.805405 0.844773 0 0.0218727 0.0416369 0.0625852 0.0861819 0.110221 0.135508 0.162423 0.191105 0.221576 0.253774 0.287559 0.322775 0.35924 0.396758 0.435143 0.474209 0.513788 0.553712 0.593836 0.634018 0.674144 0.714109 0.753819 0.793187 0 0.0145598 0.0309105 0.0493125 0.0706615 0.0936408 0.118587 0.145667 0.174889 0.206158 0.23931 0.274141 0.310435 0.347966 0.386521 0.425889 0.465869 0.506285 0.546969 0.58777 0.628552 0.669199 0.709608 0.749694 0.789392 0 0.0107971 0.0242907 0.0407134 0.0604945 0.082776 0.107624 0.134996 0.164761 0.196717 0.230624 0.266243 0.303318 0.34161 0.380881 0.420913 0.461508 0.502473 0.543649 0.584886 0.626047 0.667027 0.707728 0.748059 0.787968 0 0.00875113 0.020733 0.0362578 0.0554089 0.0775907 0.102666 0.130447 0.160709 0.193194 0.227634 0.263767 0.301332 0.340074 0.379757 0.420157 0.461078 0.502324 0.543742 0.585182 0.626518 0.667645 0.708468 0.748915 0.788928 0 0.00814922 0.0200046 0.0357512 0.0553091 0.0780025 0.103606 0.131871 0.162551 0.195393 0.230137 0.266526 0.304299 0.343209 0.383022 0.423518 0.464497 0.505777 0.547203 0.588631 0.629943 0.671031 0.711822 0.752248 0.792269 0 0.00894124 0.0218978 0.0389198 0.059856 0.0836359 0.11004 0.138858 0.169895 0.202959 0.237824 0.274248 0.311994 0.350825 0.390519 0.430864 0.471663 0.512743 0.553963 0.595174 0.636268 0.677148 0.717754 0.75803 0.797959 0 0.0109997 0.0261669 0.0453833 0.0685265 0.0939056 0.121375 0.150831 0.182237 0.215461 0.250332 0.286641 0.324177 0.362728 0.402091 0.442064 0.482472 0.523146 0.563951 0.604755 0.645455 0.685965 0.726234 0.766227 0.805959 0 0.0145313 0.0329487 0.0550235 0.0809745 0.108289 0.136971 0.167214 0.199069 0.232473 0.267305 0.303412 0.340616 0.378735 0.417588 0.457006 0.496823 0.536898 0.577094 0.617308 0.657444 0.697432 0.737226 0.776816 0.816237 0 0.0209626 0.0432255 0.0682427 0.0971726 0.126367 0.156401 0.187567 0.219981 0.253627 0.288443 0.324308 0.361107 0.398676 0.436883 0.47558 0.514629 0.553916 0.593319 0.632765 0.67217 0.711493 0.750696 0.789782 0.828788 0 0.0206058 0.0394425 0.0616372 0.0827674 0.104465 0.127552 0.152461 0.179391 0.208379 0.23934 0.272123 0.306547 0.342379 0.379421 0.417452 0.456264 0.495656 0.535454 0.575485 0.615607 0.655679 0.695578 0.735187 0.774398 0 0.0132041 0.027991 0.0465159 0.0657959 0.086642 0.109601 0.134918 0.162626 0.192622 0.224711 0.258679 0.294279 0.331261 0.369394 0.408439 0.448184 0.488426 0.528986 0.569695 0.61041 0.650997 0.69134 0.731324 0.770865 0 0.00893905 0.0205282 0.0362222 0.0541267 0.0745936 0.0978015 0.123733 0.152253 0.183147 0.216159 0.251026 0.287492 0.325281 0.364157 0.403879 0.444231 0.485013 0.526049 0.567175 0.608254 0.649156 0.689771 0.729991 0.769738 0 0.00659819 0.0166292 0.0308514 0.048334 0.0690157 0.0927539 0.119341 0.148539 0.180093 0.21372 0.249155 0.286126 0.324369 0.363641 0.40371 0.444356 0.485385 0.526627 0.567926 0.609144 0.650164 0.69088 0.731191 0.771029 0 0.00625854 0.0163428 0.0308459 0.0488893 0.0702282 0.0945918 0.121717 0.151357 0.18327 0.217186 0.252847 0.289984 0.328348 0.367694 0.4078 0.448448 0.489454 0.530658 0.571896 0.613045 0.653992 0.694644 0.734909 0.774721 0 0.00753434 0.0192051 0.0356724 0.0551987 0.0776054 0.102686 0.130254 0.16016 0.192204 0.226151 0.261757 0.29878 0.33698 0.376122 0.415992 0.456388 0.497127 0.538056 0.579021 0.619904 0.660601 0.701023 0.741103 0.780792 0 0.00998692 0.0244349 0.04415 0.0660091 0.0899389 0.115913 0.144003 0.17416 0.206253 0.240092 0.275473 0.312183 0.35 0.388713 0.428123 0.468041 0.508296 0.548737 0.58923 0.629661 0.669935 0.709977 0.749736 0.789195 0 0.0136609 0.0318623 0.0557055 0.0804127 0.106091 0.13323 0.162041 0.192568 0.224756 0.258474 0.293562 0.329843 0.367132 0.40525 0.444017 0.483266 0.522835 0.562605 0.602438 0.642249 0.681942 0.721462 0.760773 0.799874 0 0.0199261 0.0422916 0.0706375 0.0978746 0.125414 0.153913 0.183657 0.214735 0.247143 0.280806 0.315615 0.351432 0.388117 0.425526 0.463503 0.501919 0.540635 0.579551 0.618561 0.657588 0.696562 0.735437 0.774186 0.812814 0 0.0190326 0.0422424 0.0614497 0.0796932 0.0985863 0.119087 0.141734 0.166766 0.194209 0.223947 0.255791 0.289495 0.324808 0.36148 0.399263 0.437921 0.477221 0.516972 0.556994 0.597113 0.637185 0.677067 0.716626 0.755704 0 0.0111032 0.0283203 0.0443047 0.0607461 0.0789176 0.0995465 0.122928 0.149069 0.177822 0.208945 0.242167 0.277209 0.313783 0.351617 0.390463 0.430083 0.470248 0.510768 0.551465 0.592175 0.632759 0.673082 0.713013 0.75242 0 0.00617277 0.0181682 0.0313152 0.0467032 0.0649919 0.0864057 0.110889 0.138241 0.168197 0.200464 0.234749 0.270756 0.308198 0.346805 0.386337 0.426558 0.467251 0.508227 0.549321 0.590374 0.631255 0.671834 0.71199 0.751591 0 0.00356037 0.0119587 0.0238996 0.0395058 0.0586439 0.0810961 0.106603 0.134884 0.165661 0.198643 0.233544 0.270077 0.307962 0.346947 0.386791 0.427264 0.468164 0.509308 0.550535 0.591695 0.632662 0.673317 0.713546 0.753215 0 0.00399808 0.0121586 0.0245846 0.0410038 0.0609769 0.0841397 0.110207 0.138923 0.17003 0.203255 0.238318 0.274946 0.31288 0.351865 0.391672 0.432079 0.472892 0.513934 0.555044 0.596089 0.636942 0.677497 0.717648 0.757279 0 0.00638384 0.0177949 0.0322424 0.0499875 0.0707965 0.0944276 0.120743 0.149555 0.180637 0.213744 0.248621 0.285008 0.322658 0.361325 0.400797 0.440857 0.481318 0.522009 0.562777 0.603497 0.644043 0.684328 0.724258 0.763735 0 0.00952005 0.025793 0.0437435 0.063714 0.0857609 0.110089 0.136734 0.165612 0.196566 0.229399 0.263892 0.299816 0.336946 0.375057 0.413949 0.453426 0.493301 0.533427 0.573644 0.613844 0.65391 0.693766 0.73333 0.772528 0 0.0135165 0.0357422 0.0579362 0.0804394 0.104173 0.129582 0.156843 0.185974 0.216899 0.249479 0.283536 0.318902 0.355378 0.392775 0.430909 0.469606 0.508705 0.548065 0.587549 0.627055 0.666484 0.705758 0.744821 0.783616 0 0.0197951 0.0491132 0.0745788 0.0994972 0.125099 0.15189 0.18008 0.209733 0.240832 0.273293 0.306993 0.341811 0.37759 0.414182 0.451437 0.489209 0.527369 0.565798 0.604383 0.643045 0.681691 0.72026 0.758691 0.796963 0 0.0289313 0.0480508 0.0635364 0.0780655 0.0933594 0.110596 0.130475 0.153287 0.179026 0.207497 0.23843 0.271512 0.306422 0.342854 0.38051 0.419125 0.458445 0.498247 0.53834 0.578534 0.618675 0.658618 0.698192 0.737218 0 0.0186082 0.0322158 0.0440689 0.0564486 0.0709919 0.0886452 0.109723 0.134153 0.161658 0.191896 0.22451 0.259145 0.295463 0.333157 0.371941 0.411549 0.451748 0.492323 0.533087 0.573866 0.614511 0.654887 0.694839 0.734191 0 0.0105733 0.018584 0.0272217 0.0387082 0.0540435 0.0733344 0.096298 0.122559 0.151723 0.183423 0.217307 0.253037 0.290292 0.328799 0.368274 0.408475 0.44918 0.490194 0.531332 0.572429 0.61335 0.653968 0.694135 0.733674 0 0.00384143 0.00702121 0.0152431 0.0285851 0.0461762 0.0674644 0.0920512 0.119609 0.149809 0.182343 0.216889 0.253144 0.290826 0.329664 0.369403 0.409808 0.450668 0.491803 0.533024 0.574193 0.615166 0.655832 0.696052 0.735654 0 0.00312568 0.00705021 0.016914 0.0316307 0.0502473 0.0722519 0.0973571 0.125271 0.155704 0.188369 0.222961 0.259203 0.296819 0.335553 0.375157 0.415408 0.456099 0.497055 0.538098 0.579091 0.619906 0.660428 0.700546 0.740085 0 0.00901646 0.0176126 0.0292855 0.0447255 0.0635744 0.0855981 0.110585 0.138283 0.168427 0.20074 0.234934 0.270748 0.307908 0.346175 0.38531 0.425097 0.465327 0.50584 0.546461 0.587057 0.627506 0.66771 0.707565 0.746909 0 0.0152935 0.0291935 0.0445754 0.062053 0.0819429 0.104408 0.129447 0.156934 0.186688 0.218476 0.252057 0.287198 0.323653 0.361191 0.399599 0.438662 0.478194 0.51803 0.558013 0.598011 0.637913 0.677626 0.717063 0.756078 0 0.0226455 0.0423567 0.0615928 0.0816246 0.103192 0.126668 0.152196 0.179776 0.209308 0.240639 0.2736 0.307986 0.343612 0.380268 0.41776 0.455904 0.494532 0.533492 0.57265 0.611871 0.651059 0.690132 0.729004 0.767564 0 0.0342517 0.0581733 0.0804317 0.102933 0.126451 0.151342 0.177774 0.205811 0.235415 0.266499 0.298956 0.332631 0.367404 0.403095 0.439562 0.476642 0.514203 0.552121 0.590286 0.628569 0.666899 0.705194 0.743377 0.781368 
