# vtk DataFile Version 5.1
vtk output
ASCII

DATASET UNSTRUCTURED_GRID
POINTS 2025 float
0 0 0
0.178751 -0.0225257 -0.0549015
0.368542 -0.0928239 -0.0558326
0.539142 -0.198118 -0.0432518
0.708558 -0.316861 -0.0313375
0.876199 -0.446199 -0.0145723
1.04539 -0.579575 0.00424271
1.2232 -0.733375 0.0078299
1.40179 -0.891807 0.0102658
1.58182 -1.05368 0.0112841
1.76352 -1.21692 0.0111683
1.94663 -1.38037 0.0101975
2.13086 -1.54345 0.00891242
0 0.25 0
0.228273 0.236002 -0.0184993
0.453074 0.149589 -0.0280022
0.655644 0.0382239 -0.0219332
0.83995 -0.0873708 -0.00987653
1.01968 -0.228085 0.000703071
1.20218 -0.383559 0.00508213
1.3828 -0.54149 0.00662777
1.56307 -0.703394 0.00662713
1.74376 -0.867312 0.00603165
1.92558 -1.03162 0.00496902
2.10857 -1.19552 0.00367849
2.29279 -1.3583 0.00226555
0 0.5 0
0.248531 0.479533 0.00220942
0.496608 0.390749 -0.000308218
0.73004 0.272092 0.00849001
0.951567 0.130805 0.0105059
1.15665 -0.0247502 0.00900541
1.34805 -0.182681 0.00844504
1.53422 -0.346412 0.0065594
1.71876 -0.51262 0.00409156
1.90215 -0.679223 0.00181902
2.08534 -0.844989 -0.00037397
2.269 -1.00955 -0.00256645
2.45365 -1.17231 -0.00466598
0 0.75 0
0.274533 0.709027 0.0283539
0.539777 0.617492 0.0315254
0.796621 0.496725 0.0289191
1.03906 0.350881 0.0258527
1.26811 0.185292 0.0260705
1.48683 0.0168156 0.0160473
1.68457 -0.156349 0.0064734
1.87295 -0.324438 0.00159244
2.05965 -0.492362 -0.0025312
2.24454 -0.659048 -0.0057149
2.42933 -0.823897 -0.00875306
2.61412 -0.986861 -0.0113314
0 1 0
0.304376 0.920634 0.052898
0.605787 0.828958 0.056464
0.885862 0.70188 0.0494447
1.14585 0.550663 0.0418778
1.38642 0.38436 0.0324321
1.61382 0.209482 0.0257649
1.835 0.0295333 0.00870109
2.03019 -0.139882 -0.000604764
2.21868 -0.308694 -0.0069206
2.40499 -0.475335 -0.0114305
2.59041 -0.639617 -0.0150206
2.77544 -0.802485 -0.0177782
0 0 0.25
0.183459 -0.0511731 0.226329
0.357179 -0.115218 0.223135
0.526471 -0.213307 0.230372
0.694742 -0.32547 0.238811
0.864654 -0.443131 0.25045
1.04489 -0.580293 0.255886
1.22383 -0.731554 0.257762
1.4038 -0.889277 0.258119
1.58494 -1.05039 0.257654
1.76729 -1.21333 0.256775
1.95069 -1.3767 0.255691
2.13506 -1.53946 0.254233
0 0.25 0.25
0.229504 0.218328 0.240831
0.444055 0.13259 0.235616
0.638239 0.024333 0.241334
0.828407 -0.0923261 0.24743
1.01314 -0.231838 0.25232
1.19908 -0.383307 0.254157
1.38261 -0.540172 0.254243
1.56486 -0.701209 0.253307
1.74686 -0.864376 0.252233
1.92943 -1.02836 0.250787
2.11272 -1.19186 0.249395
2.29738 -1.35447 0.247547
0 0.5 0.25
0.245035 0.464084 0.249936
0.489036 0.375205 0.250619
0.723787 0.255773 0.253811
0.946724 0.122546 0.253476
1.15188 -0.0294659 0.253791
1.34595 -0.185196 0.252904
1.53526 -0.346765 0.251
1.72141 -0.511589 0.248894
1.90591 -0.67706 0.246719
2.08987 -0.842175 0.244816
2.27386 -1.00633 0.242906
2.45862 -1.16885 0.241134
0 0.75 0.25
0.264751 0.695064 0.261786
0.53328 0.602949 0.263283
0.790496 0.48325 0.262185
1.03503 0.34078 0.260566
1.26869 0.178286 0.25793
1.48692 0.0109758 0.25197
1.68598 -0.155854 0.248227
1.87661 -0.323742 0.244673
2.06375 -0.490656 0.241707
2.24939 -0.656399 0.239055
2.43468 -0.820773 0.236661
2.61953 -0.983763 0.234457
0 1 0.25
0.29643 0.903787 0.270125
0.598769 0.813452 0.275165
0.880477 0.688725 0.270917
1.14239 0.540721 0.265979
1.38681 0.37579 0.260891
1.61615 0.201446 0.255482
1.83969 0.0274031 0.244487
2.03381 -0.139378 0.240631
2.2232 -0.306801 0.236405
2.41005 -0.472299 0.233018
2.59559 -0.635968 0.230326
2.78053 -0.798801 0.227862
0 0 0.5
0.182224 -0.0571936 0.504
0.355773 -0.122607 0.502897
0.526501 -0.21555 0.507412
0.695862 -0.327326 0.510214
0.866428 -0.441129 0.511936
1.04747 -0.57743 0.509426
1.22716 -0.728605 0.507897
1.40781 -0.886037 0.506174
1.58897 -1.0471 0.504552
1.77146 -1.2098 0.50292
1.9553 -1.3731 0.50111
2.13985 -1.53592 0.499267
0 0.25 0.5
0.228932 0.213844 0.50079
0.440886 0.128029 0.5003
0.636095 0.0264493 0.505887
0.828185 -0.0908473 0.504641
1.01403 -0.230587 0.504568
1.20093 -0.380529 0.50291
1.38551 -0.537115 0.50133
1.56856 -0.698096 0.499632
1.75103 -0.861164 0.497951
1.9337 -1.02494 0.496384
2.11747 -1.18837 0.494661
2.30182 -1.35094 0.492973
0 0.5 0.5
0.244324 0.460262 0.499772
0.490323 0.369131 0.502743
0.725556 0.255488 0.499218
0.947683 0.122759 0.498818
1.15297 -0.0280791 0.497727
1.34774 -0.183286 0.496609
1.53822 -0.344395 0.494962
1.72527 -0.508733 0.493406
1.91006 -0.674043 0.491646
2.09428 -0.838821 0.490004
2.27831 -1.00273 0.488318
2.46317 -1.16532 0.486706
0 0.75 0.5
0.263391 0.690871 0.498497
0.531502 0.599609 0.497142
0.790558 0.481833 0.495785
1.03593 0.34016 0.494536
1.26974 0.178977 0.492506
1.4895 0.0124327 0.48999
1.68889 -0.153527 0.489355
1.88038 -0.320777 0.487207
2.06805 -0.487536 0.485622
2.25402 -0.653082 0.483597
2.43902 -0.817189 0.481929
2.62408 -0.979971 0.480127
0 1 0.5
0.294503 0.89845 0.496201
0.596363 0.80964 0.495863
0.879433 0.686902 0.492271
1.14325 0.540055 0.48955
1.38892 0.374482 0.487326
1.62154 0.199457 0.484883
1.83952 0.0316619 0.48415
2.03727 -0.13608 0.481265
2.22741 -0.303553 0.47899
2.41437 -0.468796 0.477449
2.60006 -0.632403 0.475367
2.78517 -0.794878 0.473451
0 0 0.75
0.184846 -0.0508934 0.781699
0.359459 -0.113993 0.783687
0.532712 -0.204028 0.783616
0.702567 -0.315286 0.781549
0.873976 -0.429327 0.771141
1.05341 -0.570929 0.762937
1.23282 -0.723493 0.757746
1.4128 -0.88148 0.754208
1.59392 -1.04305 0.751312
1.7763 -1.20611 0.748891
1.95963 -1.3697 0.746705
2.14459 -1.53247 0.744583
0 0.25 0.75
0.228347 0.218656 0.760974
0.437684 0.138719 0.767771
0.639524 0.0393938 0.764589
0.833145 -0.0810253 0.762388
1.02248 -0.223342 0.755827
1.20779 -0.374686 0.751397
1.39149 -0.532154 0.748299
1.57375 -0.693725 0.745963
1.75591 -0.857093 0.743829
1.93858 -1.02102 0.74179
2.12191 -1.18488 0.740094
2.30637 -1.34719 0.738347
0 0.5 0.75
0.248237 0.461628 0.74941
0.496409 0.375472 0.748628
0.732058 0.264237 0.745772
0.953654 0.130604 0.743472
1.15947 -0.020467 0.741636
1.35398 -0.17703 0.740006
1.54379 -0.339104 0.738829
1.7302 -0.504215 0.737812
1.91484 -0.669713 0.736543
2.09902 -0.834847 0.735093
2.28294 -0.998995 0.733597
2.46758 -1.16146 0.732178
0 0.75 0.75
0.264015 0.693008 0.734058
0.535406 0.605773 0.731119
0.796174 0.489947 0.730055
1.04148 0.348728 0.728613
1.27442 0.186757 0.72629
1.49349 0.0190836 0.728629
1.69441 -0.147953 0.729572
1.88529 -0.316408 0.729793
2.07285 -0.483358 0.729145
2.25852 -0.649127 0.728302
2.44366 -0.813409 0.726963
2.6286 -0.976166 0.725944
0 1 0.75
0.295381 0.903568 0.720199
0.599884 0.81611 0.716312
0.883709 0.694807 0.713958
1.14753 0.548659 0.712965
1.39216 0.383873 0.71348
1.62315 0.209156 0.715973
1.84675 0.0344588 0.72115
2.04288 -0.132351 0.722079
2.23227 -0.299518 0.721991
2.41891 -0.464825 0.721701
2.60451 -0.628293 0.720531
2.7895 -0.790975 0.719424
0 0 1
0.180629 -0.0202121 1.0607
0.368075 -0.0851096 1.06357
0.547202 -0.179723 1.05894
0.725043 -0.288163 1.04721
0.889473 -0.414264 1.02995
1.06562 -0.563472 1.01552
1.24229 -0.717868 1.00752
1.42028 -0.876964 1.00199
1.60044 -1.03877 0.997848
1.78211 -1.20243 0.994716
1.96541 -1.3661 0.992287
2.14986 -1.52879 0.989942
0 0.25 1
0.222489 0.23579 1.02515
0.442889 0.16433 1.0264
0.651218 0.0621455 1.02221
0.851133 -0.0646123 1.01444
1.03924 -0.211092 1.00638
1.22043 -0.366716 0.999675
1.40084 -0.525888 0.995395
1.58106 -0.688459 0.992211
1.76194 -0.85264 0.98969
1.94373 -1.01689 0.987534
2.12698 -1.18083 0.985675
2.31117 -1.34336 0.98352
0 0.5 1
0.254045 0.47536 0.993896
0.505989 0.395707 0.993574
0.743632 0.284056 0.990271
0.966008 0.147649 0.986141
1.17403 -0.00473973 0.984495
1.36499 -0.169206 0.984109
1.55183 -0.331759 0.982643
1.73655 -0.49823 0.982241
1.92019 -0.664784 0.981502
2.10366 -0.830495 0.980252
2.28746 -0.995061 0.979109
2.47205 -1.15753 0.977464
0 0.75 1
0.272452 0.705992 0.967621
0.545976 0.624355 0.962296
0.807534 0.509057 0.962343
1.05185 0.36735 0.961291
1.28069 0.208009 0.96031
1.50167 0.0305643 0.963792
1.70097 -0.140564 0.970508
1.89052 -0.309862 0.972411
2.07733 -0.477859 0.972955
2.26266 -0.644426 0.972995
2.44707 -0.809062 0.972605
2.63234 -0.971641 0.971547
0 1 1
0.309034 0.922895 0.938046
0.607933 0.834914 0.933215
0.892421 0.713608 0.933744
1.15749 0.566146 0.9355
1.40188 0.399307 0.938619
1.62726 0.22535 0.943786
1.85321 0.0425983 0.958934
2.04657 -0.125496 0.962806
2.2357 -0.293819 0.965065
2.42237 -0.459969 0.965984
2.60786 -0.623953 0.965828
2.79252 -0.786619 0.965216
0 0 0.125
0.0980645 -0.0181202 0.101588
0.0983047 -0.0151067 -0.0386998
0 0.125 0
0 0.125 0.125
0.106932 0.125395 -0.0264331
0.205922 0.111468 -0.0365622
0.115859 0.250242 -0.0133645
0.112544 0.116885 0.106818
0 0.125 0.25
0.116415 0.243253 0.115251
0 0.25 0.125
0.188395 -0.0427679 0.0806759
0.2165 0.0958828 0.0952636
0.0996374 -0.0303549 0.232708
0.110252 0.110257 0.23655
0.23121 0.226611 0.109539
0.116329 0.239241 0.24359
0.208763 0.0895722 0.233063
0.273853 -0.0661144 0.0806278
0.27419 -0.0473447 -0.056141
0.312336 0.0752598 -0.0395163
0.413728 0.0310615 -0.0397258
0.341875 0.198871 -0.0239706
0.312271 0.0628628 0.0945487
0.342051 0.186013 0.105269
0.360355 -0.105289 0.0827479
0.409905 0.0177641 0.0923132
0.271882 -0.0756816 0.221739
0.308905 0.0551751 0.228469
0.447432 0.140621 0.103358
0.338606 0.179399 0.237044
0.404006 0.0110458 0.230033
0.444816 -0.153805 0.0877764
0.454721 -0.142175 -0.0489507
0.510885 -0.0234996 -0.0364684
0.602044 -0.0803352 -0.0312225
0.555797 0.0975628 -0.0244038
0.501956 -0.0330023 0.0972823
0.549242 0.0873593 0.105106
0.531 -0.205232 0.0914929
0.593216 -0.088954 0.0999735
0.442367 -0.160927 0.227131
0.497329 -0.0397843 0.231764
0.645861 0.0304362 0.108045
0.543163 0.0812573 0.237626
0.587201 -0.0950811 0.235231
0.615557 -0.261724 0.0989414
0.62516 -0.255405 -0.0365354
0.693143 -0.141182 -0.0271736
0.779496 -0.203948 -0.0214942
0.749809 -0.0233056 -0.0165998
0.682321 -0.146495 0.106095
0.739036 -0.0284315 0.114984
0.700838 -0.320142 0.101888
0.771066 -0.20799 0.109247
0.612233 -0.266136 0.235683
0.677847 -0.150396 0.239464
[...]
POINT_DATA 2025
SCALARS scalars float 1
LOOKUP_TABLE default
0 0.0927251 0.170337 0.292545 0.43165 0.582266 0.736612 0.903005 1.07391 1.24773 1.42247 1.59716 1.77136 0 0.0317837 0.114318 0.23288 0.373541 0.530674 0.700087 0.872548 1.04877 1.22666 1.40446 1.58145 1.75693 0 0.0206383 0.109304 0.228938 0.372507 0.533065 0.699438 0.873509 1.05096 1.22946 1.40746 1.58433 1.7593 0 0.0555394 0.141896 0.259148 0.401858 0.565599 0.733478 0.90873 1.08192 1.25686 1.43203 1.60626 1.77925 0 0.10979 0.208888 0.331329 0.474269 0.631407 0.799085 0.97422 1.14028 1.30909 1.47844 1.64743 1.81651 0 0.0872165 0.185458 0.309597 0.446361 0.587245 0.737495 0.901161 1.07067 1.24325 1.41742 1.59193 1.7658 0 0.0388237 0.130851 0.251974 0.382933 0.536911 0.701178 0.871415 1.04602 1.2227 1.39991 1.57641 1.75158 0 0.0362576 0.125278 0.24566 0.381211 0.538494 0.702306 0.873569 1.04925 1.22633 1.40345 1.57981 1.75449 0 0.0580906 0.151354 0.270082 0.410852 0.572075 0.739142 0.908116 1.08082 1.25458 1.4286 1.60216 1.77509 0 0.10871 0.212576 0.338162 0.48111 0.63912 0.806976 0.976739 1.13992 1.30715 1.47514 1.64336 1.81228 0 0.0887731 0.189321 0.310593 0.44693 0.584692 0.73369 0.896824 1.06574 1.23831 1.41222 1.58649 1.76037 0 0.0418537 0.135542 0.250966 0.381731 0.53541 0.697866 0.867411 1.04165 1.21805 1.39506 1.57131 1.74658 0 0.0401416 0.131255 0.245732 0.380854 0.536924 0.700052 0.870562 1.0455 1.2223 1.39898 1.57507 1.74976 0 0.0606455 0.153681 0.27125 0.411449 0.571414 0.73771 0.905654 1.07751 1.25092 1.42458 1.59785 1.77045 0 0.110938 0.213401 0.338885 0.481849 0.640883 0.809859 0.972596 1.13685 1.30392 1.47146 1.63946 1.80788 0 0.088544 0.184068 0.299953 0.434588 0.571107 0.724961 0.889369 1.05916 1.23223 1.40657 1.58138 1.75505 0 0.0396449 0.128773 0.23827 0.370907 0.525219 0.689653 0.860404 1.03553 1.21236 1.38951 1.56636 1.74134 0 0.0384165 0.124587 0.236483 0.372349 0.528348 0.692669 0.864144 1.0399 1.21686 1.39385 1.57016 1.74477 0 0.0608171 0.149705 0.264873 0.403977 0.564271 0.731258 0.899904 1.07275 1.24619 1.41998 1.5933 1.76583 0 0.110664 0.21196 0.335141 0.476282 0.633368 0.801098 0.970805 1.13351 1.29994 1.46734 1.63505 1.80356 0 0.0943712 0.169377 0.277312 0.401083 0.549992 0.711639 0.879297 1.05126 1.22514 1.40044 1.57539 1.74929 0 0.0398925 0.106291 0.213402 0.348354 0.507017 0.677126 0.850846 1.02775 1.20587 1.38369 1.56065 1.73596 0 0.025705 0.104663 0.216256 0.354258 0.510661 0.682874 0.855218 1.03256 1.21072 1.38841 1.56512 1.73972 0 0.0590696 0.139004 0.250563 0.388081 0.544309 0.720348 0.892399 1.06586 1.24024 1.41474 1.58845 1.76069 0 0.11519 0.208238 0.32664 0.46604 0.622629 0.787044 0.963824 1.12707 1.29437 1.46243 1.63052 1.79896 0 0.0400251 0.0493815 0 0 0.0320204 0.0588451 0.0161932 0.023486 0 0.014638 0 0.0871142 0.053426 0.0431705 0.0248149 0.033751 0.0152324 0.0569426 0.128727 0.124724 0.0892322 0.133587 0.0654681 0.0933985 0.0746277 0.179921 0.143823 0.130995 0.0985274 0.12327 0.080479 0.15033 0.239808 0.227167 0.190799 0.255006 0.169179 0.20217 0.180519 0.302 0.266428 0.24449 0.209252 0.2436 0.187948 0.274149 0.369444 0.359147 0.323517 0.396599 0.301072 0.333455 0.310017 0.438774 0.404402 0.374273 0.338856 0.379854 0.314362 0.408877 0.51277 0.503248 0.469762 0.550709 0.447997 0.477949 0.454829 0.58501 0.552975 0.51583 0.479304 0.535332 0.457119 0.555695 0.659174 0.659088 0.628869 0.713274 0.613554 0.632206 0.616537 0.736534 0.714244 0.659066 0.632495 0.700522 0.617714 0.714366 0.818573 0.817922 0.797427 0.883658 0.784977 0.797439 0.785288 0.901623 0.882936 0.817761 0.797053 0.871803 0.785016 0.882154 0.986236 0.986785 0.969912 1.05784 0.959775 0.96892 0.959058 1.07172 1.05633 0.984654 0.967688 1.04724 0.957945 1.05481 1.15814 1.15945 1.14536 1.23415 1.13706 1.1437 1.13562 1.24487 1.23194 1.15603 1.14184 1.22446 1.1339 1.22991 1.3321 1.33396 1.32197 1.41076 1.31511 1.31983 1.31309 1.4193 1.40822 1.32963 1.31761 1.40191 1.31102 1.40598 1.50672 1.50882 1.49843 1.58687 1.49261 1.49607 1.49027 1.59386 1.58412 1.50412 1.49367 1.57858 1.48797 1.58173 1.68092 1.68324 1.67397 1.76169 1.66886 1.67141 1.66621 1.76751 1.75882 1.67827 1.66885 1.75367 1.66386 1.75625 0 0 0.00758385 0.0200453 0.00702528 0.0106126 0 0.0119699 0 0.0276646 0.0132151 0.0298007 0.0148647 0.0341065 0.057827 0.105865 0.0599816 0.0682783 0.0713434 0.116262 0.0745923 0.118269 0.0767037 0.122702 0.160664 0.222952 0.164323 0.171806 0.174382 0.234667 0.177729 0.238349 0.179973 0.242028 0.291215 0.365994 0.297725 0.300949 0.305909 0.371641 0.305015 0.377627 0.310874 0.374768 0.443009 0.5265 0.450268 0.447834 0.454681 0.530241 0.451043 0.536882 0.458292 0.532144 0.61024 0.6954 0.614084 0.612224 0.617855 0.696352 0.61361 0.700977 0.618798 0.697085 0.781136 0.869115 0.785228 0.781646 0.786651 0.868858 0.781616 0.873643 0.786735 0.868369 0.957109 1.04637 0.961667 0.956509 0.961604 1.04524 0.955582 1.05009 0.960906 1.04399 1.13531 1.22499 1.13982 1.13391 1.13882 1.22316 1.13236 1.22769 1.13756 1.22133 1.31392 1.40326 1.3182 1.31194 1.31655 1.40101 1.31 1.40521 1.31481 1.39883 1.49167 1.58042 1.49568 1.48938 1.49362 1.57787 1.48713 1.58175 1.49159 1.57555 1.66805 1.75572 1.67175 1.66555 1.66938 1.75293 1.66317 1.75644 1.66721 1.75057 0 0 0.0158824 0.0353842 0.0300428 0.0194485 0 0.025929 0 0.0408266 0.0194738 0.0555774 0.0257426 0.0446667 0.0745166 0.122305 0.0933036 0.0820571 0.0985441 0.130522 0.0870732 0.147644 0.101334 0.135953 0.177416 0.240941 0.196717 0.186271 0.203851 0.248845 0.192316 0.265734 0.207804 0.253715 0.30887 0.382105 0.327004 0.315324 0.333964 0.38743 0.320071 0.406149 0.337678 0.390853 0.46092 0.544583 0.480264 0.464207 0.485345 0.548309 0.46916 0.567054 0.489599 0.551036 0.627175 0.711991 0.648374 0.631756 0.653052 0.714413 0.632172 0.736929 0.654849 0.715656 0.79854 0.886513 0.820938 0.800176 0.823893 0.887046 0.800408 0.908079 0.822957 0.886869 0.974553 1.06277 0.994288 0.974199 0.99465 1.06226 0.973704 1.08134 0.994403 1.06139 1.15126 1.23994 1.16905 1.15024 1.16845 1.23859 1.1492 1.25552 1.16752 1.23722 1.32842 1.41692 1.34429 1.32679 1.34294 1.41503 1.32523 1.43009 1.34156 1.41315 1.50486 1.59277 1.51908 1.50281 1.51725 1.5905 1.50087 1.60398 1.51548 1.58835 1.67991 1.76681 1.69273 1.67767 1.69059 1.76441 1.67547 1.77671 1.68872 1.76226 0 0 0.0421234 0.0806627 0.0571407 0.0383224 0 0.0564975 0 0.0791099 0.0360246 0.106441 0.0540842 0.0786663 0.122792 0.171745 0.157016 0.124036 0.156185 0.175357 0.126035 0.211207 0.157879 0.17784 0.228195 0.290294 0.267605 0.232881 0.271254 0.295966 0.236451 0.335749 0.273361 0.299116 0.359683 0.432965 0.400723 0.36444 0.405234 0.437609 0.368317 0.47853 0.407787 0.440797 0.511158 0.592973 0.55167 0.515301 0.556089 0.595188 0.519408 0.635519 0.558608 0.600211 0.674543 0.758072 0.71336 0.679165 0.719163 0.764517 0.683002 0.803178 0.721796 0.768479 0.847808 0.937459 0.885777 0.853607 0.890448 0.936539 0.850734 0.975583 0.89256 0.938959 1.02238 1.10758 1.05805 1.02283 1.05823 1.10748 1.02267 1.14044 1.05748 1.10679 1.19336 1.27964 1.22437 1.19301 1.22447 1.2788 1.19217 1.30809 1.2234 1.27763 1.36597 1.45232 1.3936 1.36471 1.39256 1.45072 1.3634 1.47662 1.39113 1.44903 1.53841 1.6243 1.56294 1.53654 1.56112 1.62225 1.5348 1.64527 1.55939 1.62018 1.70992 1.79538 1.73202 1.70783 1.72974 1.7933 1.70588 1.81408 1.72796 1.79119 0 0.0391821 0 0.020628 0 0.0154799 0 0.086735 0.0545882 0.0432792 0.0237683 0.0392711 0.0160401 0.0586359 0.134081 0.100181 0.0828846 0.188916 0.153532 0.133786 0.101982 0.133818 0.0846397 0.155362 0.248874 0.213129 0.190713 0.31177 0.276975 0.247379 0.213001 0.253939 0.191929 0.274988 0.377103 0.340094 0.315141 0.445036 0.409789 0.374644 0.338968 0.384266 0.313556 0.407552 0.51855 0.482627 0.458225 0.586436 0.555179 0.515989 0.477692 0.537534 0.456338 0.553608 0.658364 0.632654 0.616928 0.735648 0.713284 0.655447 0.629721 0.699898 0.615245 0.710972 0.816209 0.79552 0.783609 0.898927 0.88041 0.81348 0.793097 0.869578 0.781378 0.878039 0.982634 0.965657 0.956003 1.06796 1.05265 0.979948 0.963195 1.04389 0.95375 1.0502 1.15373 1.13959 1.1317 1.24046 1.22763 1.15105 1.13712 1.22038 1.12939 1.22515 1.32719 1.3152 1.30864 1.41445 1.4035 1.32448 1.31267 1.39735 1.30626 1.401 1.50149 1.49108 1.48543 1.58873 1.57901 1.49879 1.48854 1.57367 1.48299 1.57646 1.67556 1.66615 1.66119 1.76211 1.75349 1.67285 1.66367 1.74858 1.65881 1.75108 0 0.014677 0 0.0162884 0 0.0358266 0.0150012 0.037644 0.0163628 0.0376795 0.0772353 0.0799716 0.125836 0.0783873 0.12765 0.0808567 0.127053 0.180814 0.185493 0.243124 0.181902 0.246826 0.186047 0.240861 0.306218 0.311729 0.37626 0.304731 0.383041 0.311157 0.374267 0.451905 0.459054 0.532163 0.450621 0.537382 0.45761 0.530845 0.612791 0.618467 0.696065 0.611209 0.701245 0.616747 0.694318 0.780534 0.785918 0.866867 0.778395 0.872245 0.784036 0.8649 0.953904 0.959408 1.04212 0.951805 1.04738 0.957469 1.03996 1.13032 1.1356 1.21918 1.12815 1.22418 1.1336 1.217 1.30769 1.31263 1.39649 1.30545 1.40105 1.3105 1.39419 1.48472 1.48922 1.573 1.48238 1.57718 1.48697 1.57065 1.66057 1.66466 1.74799 1.65823 1.75174 1.6624 1.74568 0 0.0197879 0 0.026383 0 0.046141 0.0203479 0.0580011 0.0256441 0.0483675 0.0888928 0.102483 0.138903 0.09095 0.153369 0.103623 0.139418 0.193978 0.209631 0.255218 0.194488 0.271484 0.209871 0.254389 0.321177 0.33933 0.393282 0.320656 0.411815 0.338728 0.391344 0.471017 0.489816 0.550546 0.469321 0.569978 0.489412 0.550238 0.633549 0.65529 0.715682 0.630734 0.739399 0.654273 0.714149 0.800191 0.822467 0.88571 0.798189 0.907323 0.821475 0.884097 0.972423 0.992959 1.05975 0.970545 1.079 0.991125 1.05788 1.14735 1.16583 1.23534 1.14554 1.25253 1.16412 1.23343 1.32315 1.33958 1.41101 1.32119 1.42635 1.33776 1.40895 1.49858 1.51328 1.58603 1.49648 1.59977 1.51124 1.58391 1.67312 1.68633 1.75984 1.67087 1.77235 1.68419 1.75758 0 0.0372419 0 0.0555299 0 0.0797711 0.03589 0.107196 0.0544535 0.0803059 0.125803 0.157317 0.179201 0.127386 0.21328 0.15907 0.179395 0.237268 0.274183 0.300948 0.238146 0.339179 0.274269 0.300469 0.369552 0.409113 0.442402 0.369453 0.482325 0.408693 0.441708 0.519876 0.560596 0.600402 0.520169 0.639859 0.560068 0.601121 0.683794 0.723811 0.768112 0.684002 0.808681 0.724028 0.769117 0.854987 0.893988 0.936805 0.85204 0.973424 0.890499 0.935068 1.02075 1.05596 1.10526 1.01925 1.13825 1.05501 1.10375 1.1906 1.2219 1.27587 1.18889 1.30516 1.22027 1.27423 1.36157 1.38944 1.447 1.35981 1.47301 1.38769 1.44521 1.53267 1.55736 1.61807 1.53078 1.64121 1.55555 1.61614 1.70364 1.7257 1.78894 1.70159 1.80986 1.72381 1.78672 0 0.0408975 0 0.0201175 0 0.0153411 0 0.0864226 0.0550449 0.0417298 0.0234544 0.039957 0.015256 0.05883 0.13408 0.101413 0.0838562 0.188198 0.153794 0.13274 0.10067 0.134062 0.082412 0.1496 0.245126 0.209578 0.187297 0.30611 0.270205 0.239094 0.203258 0.245732 0.180147 0.262708 0.370391 0.33341 0.308813 0.438223 0.402815 0.362687 0.326447 0.377892 0.301698 0.39526 0.512014 0.475847 0.452034 0.57944 0.548157 0.5013 0.46395 0.531486 0.446101 0.542022 0.651221 0.626166 0.611216 0.729339 0.707232 0.64487 0.620027 0.694248 0.605972 0.702528 0.810037 0.789703 0.777979 0.893024 0.874644 0.805382 0.785251 0.864152 0.77384 0.870819 0.976833 0.960064 0.950635 1.06226 1.04711 0.972968 0.956385 1.03863 0.947197 1.04387 1.14808 1.13413 1.12648 1.2349 1.22223 1.14472 1.131 1.21522 1.12346 1.21929 1.3217 1.30989 1.30347 1.40904 1.39821 1.31863 1.30696 1.39222 1.30064 1.3954 1.49608 1.4858 1.48033 1.5834 1.57383 1.49331 1.48313 1.56865 1.47773 1.57142 1.67022 1.66104 1.65615 1.75672 1.74835 1.66752 1.65847 1.7435 1.65366 1.74581 0 0.0148547 0 0.0167242 0 0.0354722 0.0134637 0.0379641 0.0152956 0.0339921 0.0775662 0.0821581 0.125557 0.0748682 0.129391 0.0780175 0.11982 0.178114 0.182911 0.236666 0.171349 0.242634 0.177293 0.230125 0.300907 0.307561 0.371353 0.294742 0.37911 0.302209 0.365159 0.447215 0.454895 0.526631 0.441453 0.53235 0.449216 0.52129 0.60736 0.613461 0.690754 0.602346 0.696437 0.608627 0.686462 0.775254 0.781121 0.861758 0.771179 0.867494 0.777215 0.858236 0.948831 0.954616 1.03712 0.945518 1.04266 0.951437 1.03412 1.12537 1.13094 1.21426 1.12248 1.21948 1.1281 1.21146 1.30271 1.30786 1.39149 1.30001 1.39628 1.30526 1.3889 1.47978 1.48445 1.56811 1.47731 1.57243 1.48201 1.5657 1.65563 1.65983 1.74304 1.65317 1.74686 1.65746 1.74059 0 0.0214256 0 0.0269311 0 0.048657 0.0205818 0.0594384 0.0263195 0.046548 0.0896417 0.102602 0.137974 0.0870164 0.152712 0.10132 0.133531 0.191496 0.207799 0.251557 0.187185 0.268833 0.204505 0.246384 0.31736 0.336185 0.389423 0.312722 0.408529 0.331946 0.383501 0.467213 0.486409 0.546299 0.461671 0.566703 0.481946 0.542752 0.629334 0.651548 0.71131 0.62332 0.735574 0.647443 0.707296 0.795707 0.818363 0.881256 0.791868 0.902943 0.815192 0.878149 0.967948 0.988778 1.05534 0.965021 1.07507 0.986385 1.05272 1.14297 1.1617 1.23087 1.14042 1.24836 1.15933 1.22836 1.31868 1.33541 1.40643 1.31626 1.42203 1.33307 1.4041 1.49402 1.5089 1.58141 1.49173 1.59535 1.5067 1.57914 1.6684 1.68182 1.75505 1.66605 1.76768 1.6796 1.75271 0 0.0374752 0 0.0544036 0 0.0811209 0.0352011 0.107996 0.0527178 0.080766 0.126045 0.157573 0.179036 0.126419 0.213308 0.158654 0.177137 0.23619 0.273335 0.299067 0.234477 0.337934 0.272047 0.295685 0.36708 0.407085 0.439501 0.363773 0.480058 0.40428 0.435263 0.516911 0.558036 0.597725 0.513383 0.637208 0.553924 0.593719 0.680891 0.721246 0.765545 0.677023 0.802742 0.715948 0.762856 0.850318 0.887778 0.931925 0.843658 0.971421 0.887331 0.931795 1.01761 1.0537 1.10185 1.01595 1.13534 1.05195 1.09975 1.18689 1.21867 1.27201 1.18472 1.30169 1.21668 1.26988 1.35758 1.38565 1.44296 1.35547 1.46917 1.38366 1.44085 1.52853 1.55341 1.61382 1.52643 1.63715 1.55136 1.61164 1.69926 1.72142 1.78445 1.69706 1.80552 1.71945 1.78215 0 0.0424154 0 0.0206664 0 0.0134221 0 0.086388 0.0548498 0.0541354 0.0341667 0.039387 0.0189801 0.0624608 0.12775 0.0945204 0.0762196 0.177124 0.140626 0.125748 0.0902999 0.118909 0.0661532 0.131365 0.229772 0.192659 0.16907 0.289105 0.251833 0.217306 0.180151 0.227574 0.155618 0.238326 0.352893 0.315519 0.291432 0.418767 0.381849 0.336382 0.299251 0.361928 0.27856 0.367267 0.486777 0.454082 0.435981 0.562695 0.532734 0.476723 0.440791 0.517276 0.425528 0.522487 0.637298 0.613118 0.59884 0.71825 0.696224 0.62871 0.604634 0.683705 0.591345 0.689437 0.80014 0.780065 0.768602 0.884053 0.865942 0.793922 0.77409 0.855798 0.763217 0.86094 0.968794 0.95221 0.94297 1.05478 1.03986 0.964098 0.94769 1.03161 0.938829 1.03595 1.14121 1.1274 1.11989 1.22818 1.21568 1.13732 1.12371 1.20895 1.11655 1.21243 1.31542 1.30374 1.29753 1.40289 1.39217 1.31211 1.30067 1.38645 1.29463 1.3893 1.49036 1.48013 1.4748 1.57762 1.56821 1.48734 1.47727 1.56317 1.47218 1.56544 1.66466 1.65552 1.65075 1.75095 1.74264 1.66175 1.65283 1.73806 1.64832 1.73997 0 0.00964033 0 0.0125021 0 0.030182 0.00861925 0.0326412 0.0093748 0.0216026 0.066117 0.070858 0.109948 0.0535355 0.116074 0.0610245 0.0959851 0.161232 0.16834 0.220335 0.148208 0.22811 0.157204 0.206924 0.285533 0.293587 0.356784 0.273582 0.365664 0.283181 0.344728 0.432598 0.441525 0.513115 0.422213 0.51986 0.43173 0.503141 0.595494 0.601944 0.680712 0.587725 0.687259 0.596166 0.674553 0.766263 0.772907 0.853638 0.760777 0.859736 0.767685 0.848869 0.941447 0.947569 1.03028 0.937161 1.03614 0.943533 1.02645 1.11897 1.12475 1.20817 1.11558 1.21369 1.12157 1.20506 1.29697 1.30233 1.38594 1.29406 1.391 1.29958 1.38324 1.47446 1.4793 1.56277 1.47183 1.56734 1.47689 1.56025 1.65043 1.65477 1.73768 1.64801 1.74169 1.65252 1.73505 0 0.0180184 0 0.0256721 0 0.0443381 0.0176955 0.0584906 0.031288 0.0394143 0.0811235 0.09746 0.127739 0.0751302 0.145281 0.094557 0.117286 0.179248 0.198571 0.239286 0.170814 0.258916 0.191747 0.228815 0.304797 0.325417 0.3775 0.296313 0.397883 0.317893 0.367671 0.455416 0.474543 0.53486 0.444123 0.554806 0.464256 0.52196 0.617736 0.63844 0.703983 0.608885 0.727123 0.632848 0.698365 0.788112 0.810547 0.87389 0.782046 0.89628 0.80658 0.869486 0.961298 0.982882 1.04918 0.957332 1.06933 0.979221 1.04557 1.13712 1.15621 1.22529 1.13388 1.24311 1.15308 1.22225 1.31334 1.33028 1.40131 1.31055 1.41717 1.32766 1.3987 1.48905 1.50414 1.57651 1.48664 1.59063 1.5018 1.57415 1.66349 1.67696 1.74999 1.66111 1.76274 1.67468 1.74724 0 0.0367942 0 0.0520444 0 0.0826532 0.0446025 0.110429 0.0656738 0.0837832 0.123714 0.15587 0.174467 0.124047 0.210559 0.158495 0.169981 0.229495 0.268351 0.29107 0.224976 0.331977 0.265812 0.283925 0.35795 0.3998 0.429453 0.351397 0.472333 0.39543 0.421574 0.506439 0.549079 0.587164 0.498562 0.629127 0.544202 0.57848 0.671294 0.711597 0.756184 0.662455 0.797623 0.703328 0.746957 0.843635 0.882224 0.927787 0.835197 0.967126 0.878514 0.9253 1.01224 1.0484 1.09643 1.00874 1.13046 1.0451 1.09305 1.18175 1.21392 1.26705 1.17862 1.29718 1.21113 1.26422 1.35277 1.38117 1.4383 1.35018 1.46483 1.37895 1.43583 1.52391 1.549 1.60928 1.5217 1.63279 1.5472 1.60702 1.6946 1.71686 1.7797 1.69236 1.80097 1.71504 1.7771 
