# vtk DataFile Version 5.1
vtk output
ASCII

DATASET UNSTRUCTURED_GRID
POINTS 2025 float
0 0 0
0.149995 -0.0501205 -0.0618682
0.315553 -0.139142 -0.0617741
0.462842 -0.260478 -0.053325
0.600532 -0.403424 -0.0472856
0.728518 -0.565587 -0.0425484
0.84442 -0.745576 -0.0367424
0.946734 -0.93526 -0.016692
1.05916 -1.13831 -0.00128921
1.1732 -1.35264 0.00196242
1.29282 -1.5685 0.00275465
1.41568 -1.78317 0.0020126
1.53979 -1.99637 0.00127339
0 0.25 0
0.221709 0.20274 -0.0321234
0.428389 0.0967392 -0.0331638
0.608095 -0.0407241 -0.0288157
0.769813 -0.201649 -0.026094
0.916048 -0.381532 -0.0233069
1.04657 -0.578706 -0.0160008
1.16206 -0.793125 -0.000118026
1.27265 -1.01389 -0.000974046
1.38616 -1.22855 -0.00071463
1.50415 -1.44411 -0.00141534
1.62655 -1.65804 -0.00252021
1.75123 -1.87029 -0.0032253
0 0.5 0
0.248804 0.444641 -0.00144299
0.487092 0.338154 0.000307351
0.703489 0.191132 -0.000488126
0.896569 0.0154563 -0.00139351
1.06716 -0.182267 -0.000881342
1.21694 -0.397795 0.00265656
1.34862 -0.624463 0.0078177
1.46914 -0.86088 0.0151067
1.59127 -1.09508 0.00107962
1.71202 -1.31599 -0.00464945
1.83564 -1.53052 -0.00629768
1.96104 -1.7424 -0.00738196
0 0.75 0
0.276042 0.678002 0.040244
0.541439 0.559466 0.0394256
0.791058 0.403402 0.0342321
1.01365 0.215792 0.0293325
1.2087 0.00417246 0.0252937
1.37806 -0.22458 0.0221812
1.52574 -0.464403 0.0203485
1.65817 -0.708588 0.0167625
1.78478 -0.954656 0.0122675
1.9175 -1.18835 -0.00712647
2.04337 -1.40225 -0.00953389
2.16971 -1.6145 -0.0113346
0 1 0
0.318335 0.879517 0.0666394
0.622767 0.752658 0.0715257
0.8998 0.585872 0.0647555
1.14681 0.386107 0.0568529
1.36256 0.161781 0.0486384
1.54856 -0.0786794 0.0403499
1.7089 -0.327879 0.0320099
1.84987 -0.57985 0.0231998
1.98135 -0.827905 0.0112906
2.12327 -1.06157 -0.00852869
2.25168 -1.27558 -0.0125481
2.37875 -1.48824 -0.0150974
0 0 0.25
0.151678 -0.0774735 0.224042
0.303529 -0.161935 0.218951
0.448763 -0.27753 0.221465
0.586154 -0.416476 0.22376
0.713183 -0.575185 0.225823
0.826695 -0.750888 0.22841
0.940976 -0.93029 0.240143
1.05671 -1.13664 0.24507
1.17367 -1.35132 0.246843
1.29441 -1.56681 0.246778
1.41758 -1.78134 0.24601
1.54225 -1.99406 0.24515
0 0.25 0.25
0.220209 0.18263 0.23428
0.416668 0.0771657 0.231276
0.594001 -0.0573248 0.232364
0.755368 -0.215173 0.233128
0.901317 -0.391917 0.233739
1.03305 -0.58565 0.238729
1.15622 -0.797437 0.243464
1.26914 -1.01385 0.244495
1.3854 -1.22781 0.244257
1.50522 -1.44291 0.24292
1.6283 -1.65616 0.241952
1.75348 -1.86794 0.240991
0 0.5 0.25
0.241337 0.427509 0.248263
0.474651 0.317349 0.247088
0.689345 0.172086 0.245678
0.88203 -0.000187498 0.244334
1.05308 -0.193876 0.243949
1.20448 -0.404631 0.244883
1.34035 -0.628925 0.247592
1.46775 -0.868031 0.249098
1.59158 -1.09803 0.241684
1.71347 -1.3157 0.239635
1.83738 -1.52901 0.238175
1.96327 -1.74035 0.237138
0 0.75 0.25
0.26176 0.661226 0.264957
0.529085 0.539562 0.265731
0.777692 0.38452 0.262968
1.00015 0.20005 0.259519
1.19604 -0.00783722 0.256494
1.36761 -0.233209 0.254307
1.51848 -0.470703 0.252643
1.65517 -0.713986 0.250553
1.7872 -0.964063 0.242121
1.91861 -1.18612 0.237048
2.04527 -1.40078 0.234686
2.172 -1.61265 0.233523
0 1 0.25
0.305197 0.859648 0.27445
0.609605 0.733735 0.280592
0.887296 0.568661 0.27677
1.13459 0.371494 0.271838
1.35114 0.149993 0.266842
1.53917 -0.0878384 0.26205
1.70258 -0.335686 0.257575
1.84821 -0.588135 0.252186
1.98307 -0.838106 0.241789
2.12353 -1.05885 0.233805
2.25323 -1.27326 0.230844
2.38073 -1.48549 0.229403
0 0 0.5
0.150777 -0.08468 0.505363
0.301812 -0.169551 0.501484
0.446212 -0.283563 0.500022
0.583119 -0.420841 0.498481
0.709771 -0.57804 0.497588
0.824138 -0.756137 0.494974
0.940861 -0.930507 0.494951
1.05718 -1.13646 0.493172
1.17504 -1.35035 0.492125
1.29614 -1.56572 0.490717
1.41969 -1.77989 0.489928
1.54476 -1.99256 0.488771
0 0.25 0.5
0.21977 0.177205 0.501419
0.414601 0.0710933 0.498377
0.591309 -0.0630066 0.496792
0.752495 -0.219867 0.495219
0.899018 -0.395316 0.493131
1.03118 -0.588302 0.492708
1.15584 -0.798289 0.491167
1.26922 -1.01357 0.489818
1.38618 -1.22716 0.487892
1.50678 -1.44188 0.486814
1.63039 -1.65454 0.485916
1.75575 -1.86605 0.484826
0 0.5 0.5
0.239694 0.424062 0.498992
0.471657 0.312105 0.497033
0.686048 0.166858 0.495042
0.878803 -0.00472498 0.493013
1.05023 -0.197382 0.491185
1.2023 -0.407046 0.489351
1.33968 -0.630713 0.487918
1.46839 -0.867554 0.485304
1.592 -1.09779 0.483674
1.71512 -1.3142 0.483011
1.8394 -1.52704 0.482135
1.96545 -1.73826 0.481353
0 0.75 0.5
0.258783 0.657434 0.496708
0.524939 0.534822 0.4949
0.773669 0.379821 0.493293
0.996463 0.19601 0.491181
1.19292 -0.0110314 0.488923
1.3653 -0.235677 0.486746
1.51699 -0.472217 0.484325
1.65561 -0.715692 0.482998
1.78777 -0.963303 0.479598
1.92007 -1.18396 0.479044
2.04707 -1.39845 0.478309
2.17408 -1.61023 0.477912
0 1 0.5
0.302477 0.853594 0.493078
0.604981 0.728221 0.492797
0.882882 0.564035 0.490373
1.13077 0.367619 0.488072
1.34797 0.146885 0.485779
1.53694 -0.0904418 0.483515
1.70148 -0.337913 0.48162
1.84736 -0.588954 0.480097
1.98453 -0.837854 0.476157
2.12523 -1.05633 0.474602
2.25503 -1.27075 0.473925
2.38268 -1.48275 0.47382
0 0 0.75
0.156836 -0.076111 0.786429
0.307272 -0.161897 0.784406
0.453141 -0.276602 0.778297
0.591123 -0.414884 0.773179
0.718114 -0.573222 0.769169
0.832745 -0.75241 0.76096
0.947552 -0.92776 0.74925
1.06166 -1.13425 0.741964
1.17763 -1.34914 0.737322
1.29835 -1.56486 0.734819
1.42208 -1.77891 0.733636
1.54765 -1.99138 0.732326
0 0.25 0.75
0.222432 0.183586 0.768787
0.418386 0.0786712 0.765121
0.596495 -0.0553109 0.76102
0.758929 -0.212876 0.757201
0.906365 -0.389295 0.753094
1.03832 -0.583963 0.746431
1.16125 -0.794523 0.739146
1.27506 -1.01148 0.734537
1.38915 -1.22637 0.732181
1.50919 -1.44062 0.730897
1.63259 -1.65295 0.72996
1.75814 -1.8642 0.728877
0 0.5 0.75
0.242029 0.428121 0.74908
0.474549 0.318336 0.746726
0.690309 0.173795 0.744291
0.884169 0.00199738 0.741712
1.05638 -0.19145 0.738439
1.20857 -0.402684 0.733801
1.34514 -0.626148 0.727931
1.47238 -0.863397 0.722037
1.59387 -1.09548 0.726713
1.71736 -1.31176 0.726699
1.84138 -1.52476 0.726129
1.96779 -1.73576 0.72565
0 0.75 0.75
0.260438 0.660597 0.727678
0.528147 0.540023 0.724057
0.77767 0.385629 0.723432
1.00121 0.201669 0.722561
1.19823 -0.00589432 0.721073
1.37068 -0.230893 0.719124
1.52267 -0.467681 0.716587
1.66031 -0.711414 0.715276
1.79039 -0.96005 0.717395
1.92158 -1.18079 0.721066
2.04851 -1.39529 0.721912
2.1759 -1.60694 0.7225
0 1 0.75
0.304234 0.859926 0.709804
0.608718 0.734437 0.704962
0.88681 0.56991 0.703944
1.13501 0.373154 0.704138
1.35274 0.151961 0.704482
1.54194 -0.0859681 0.704839
1.70674 -0.333962 0.705506
1.8516 -0.585203 0.707132
1.98946 -0.834276 0.710898
2.12691 -1.05317 0.715433
2.25647 -1.26734 0.717284
2.3842 -1.47918 0.71845
0 0 1
0.15757 -0.0456178 1.06714
0.322333 -0.137705 1.06505
0.473339 -0.259306 1.05409
0.613065 -0.402037 1.04484
0.741563 -0.563963 1.03724
0.857703 -0.747011 1.02524
0.963875 -0.924609 1.00407
1.0712 -1.13421 0.989745
1.18209 -1.35019 0.982293
1.30105 -1.56523 0.978939
1.42419 -1.77865 0.977655
1.55011 -1.9909 0.975936
0 0.25 1
0.223254 0.202856 1.0367
0.429489 0.100266 1.03112
0.612815 -0.0365295 1.02333
0.777315 -0.197372 1.01697
0.925895 -0.377298 1.01134
1.05712 -0.576109 1.00075
1.17811 -0.791991 0.983117
1.28721 -1.00971 0.979715
1.39374 -1.22763 0.978171
1.51246 -1.43994 0.975395
1.63469 -1.65192 0.974397
1.76019 -1.86295 0.97286
0 0.5 1
0.248188 0.446877 0.997747
0.487224 0.340724 0.993336
0.70611 0.194829 0.990333
0.901785 0.0198837 0.987457
1.07489 -0.177732 0.983279
1.22685 -0.393378 0.976011
1.36074 -0.619517 0.968123
1.48519 -0.850053 0.958749
1.59656 -1.09102 0.968565
1.72032 -1.30821 0.970351
1.84341 -1.52232 0.970593
1.96973 -1.73333 0.970086
0 0.75 1
0.271196 0.678841 0.956226
0.54149 0.562415 0.950266
0.792388 0.407127 0.950867
1.01727 0.22022 0.95142
1.21478 0.00904974 0.951138
1.3866 -0.219324 0.950307
1.53646 -0.459123 0.948397
1.67074 -0.703632 0.946559
1.79544 -0.953875 0.954698
1.92363 -1.17524 0.963088
2.04985 -1.39127 0.966007
2.17735 -1.60318 0.96734
0 1 1
0.314824 0.883294 0.920045
0.61751 0.756092 0.912974
0.896924 0.590037 0.914539
1.14667 0.390961 0.91772
1.3652 0.166993 0.921331
1.55441 -0.0738592 0.925161
1.71759 -0.324699 0.929084
1.85922 -0.575913 0.934139
1.99427 -0.826995 0.946732
2.1274 -1.04705 0.956516
2.25683 -1.26253 0.961247
2.38427 -1.4743 0.963914
0 0 0.125
0.0764821 -0.0293412 0.0935889
0.0777371 -0.0200496 -0.0448401
0 0.125 0
0 0.125 0.125
0.101088 0.115436 -0.0351334
0.192083 0.0804946 -0.0452951
0.115902 0.240147 -0.0293102
0.104362 0.104241 0.0976849
0 0.125 0.25
0.113662 0.227687 0.105874
0 0.25 0.125
0.155243 -0.0664751 0.0757533
0.19785 0.0651356 0.0869894
0.0805049 -0.0398263 0.230934
0.104082 0.0992878 0.230679
0.224737 0.191575 0.0973311
0.115085 0.224505 0.234547
0.19259 0.0571697 0.228367
0.229936 -0.102227 0.0770816
0.236009 -0.083301 -0.0610625
0.290521 0.0341675 -0.0458866
0.379213 -0.0213416 -0.0448891
0.328067 0.15664 -0.0325659
0.285305 0.0207695 0.0890239
0.324928 0.142561 0.0981077
0.307112 -0.150339 0.0762129
0.371423 -0.0339769 0.087536
0.230039 -0.112501 0.21953
0.282788 0.0121032 0.224949
0.420888 0.0864193 0.0981358
0.320817 0.134381 0.231898
0.367634 -0.0421477 0.225554
0.379916 -0.206457 0.0813703
0.391797 -0.194771 -0.0560113
0.464764 -0.0845307 -0.0419462
0.543074 -0.153111 -0.0392422
0.520265 0.0333509 -0.0297055
0.453496 -0.0944176 0.0915509
0.511866 0.0211295 0.0997413
0.45373 -0.267849 0.0819522
0.533115 -0.161887 0.0920791
0.377902 -0.21523 0.221199
0.449993 -0.102396 0.226471
0.598961 -0.0488962 0.100987
0.506958 0.0135735 0.23262
0.528519 -0.169074 0.227277
0.522767 -0.336148 0.0861916
0.534446 -0.328252 -0.0495111
0.620734 -0.227521 -0.0372466
0.692206 -0.306374 -0.0354063
0.691035 -0.117221 -0.0263898
0.609026 -0.2343 0.0948996
0.681657 -0.126512 0.102169
0.592037 -0.408378 0.0864215
0.682123 -0.312325 0.0953279
0.519398 -0.343267 0.223678
0.604654 -0.24127 0.228324
[...]
POINT_DATA 2025
SCALARS scalars float 1
LOOKUP_TABLE default
0 0.127831 0.239159 0.391346 0.569703 0.770482 0.993488 1.23297 1.4768 1.72891 1.97926 2.22713 2.4734 0 0.0637635 0.172386 0.324789 0.507596 0.714773 0.94478 1.19741 1.45823 1.71241 1.96513 2.21422 2.46071 0 0.0553905 0.16236 0.312351 0.495462 0.706341 0.941365 1.19398 1.46083 1.72575 1.97958 2.2269 2.47141 0 0.0864954 0.198934 0.350696 0.535187 0.747398 0.982429 1.2351 1.4982 1.76704 2.024 2.2653 2.50607 0 0.153709 0.285247 0.445123 0.63376 0.84714 1.08053 1.3289 1.58714 1.84758 2.09572 2.32953 2.56467 0 0.12784 0.256491 0.410586 0.587716 0.787143 1.00878 1.23291 1.47708 1.72759 1.97695 2.22453 2.47009 0 0.0753216 0.192786 0.345102 0.525847 0.730686 0.957327 1.20405 1.45996 1.71216 1.96356 2.21172 2.45755 0 0.0730278 0.184425 0.333504 0.513942 0.721303 0.95169 1.20096 1.46792 1.72838 1.97876 2.22484 2.46864 0 0.0907901 0.21302 0.366757 0.550032 0.759784 0.992092 1.24247 1.50405 1.77546 2.02157 2.26335 2.50359 0 0.152785 0.289562 0.453453 0.643127 0.856169 1.08861 1.33655 1.59537 1.8574 2.09305 2.32698 2.56155 0 0.130555 0.260822 0.415566 0.592367 0.791191 1.01418 1.23312 1.47665 1.72599 1.97505 2.22212 2.46742 0 0.0788356 0.198251 0.35095 0.53109 0.734621 0.960517 1.205 1.45971 1.71123 1.96192 2.2093 2.4548 0 0.0766408 0.190043 0.339261 0.519119 0.725484 0.954711 1.20292 1.46732 1.72805 1.97678 2.22225 2.46586 0 0.0930396 0.216679 0.370996 0.554072 0.763249 0.994926 1.24433 1.50571 1.77468 2.01915 2.26063 2.50067 0 0.155681 0.291439 0.455868 0.645871 0.85884 1.09119 1.33892 1.59639 1.85708 2.09036 2.32421 2.55848 0 0.125696 0.254045 0.406737 0.582963 0.782211 1.00572 1.22665 1.47209 1.72346 1.97306 2.21995 2.4648 0 0.074322 0.190376 0.341906 0.52194 0.725805 0.953232 1.19907 1.45503 1.70911 1.95966 2.20686 2.45205 0 0.0723257 0.183468 0.331671 0.511363 0.718141 0.948701 1.19692 1.4622 1.72529 1.97371 2.21941 2.46266 0 0.092737 0.213438 0.366384 0.549018 0.758217 0.989862 1.23917 1.50077 1.77104 2.01578 2.25725 2.49701 0 0.155492 0.290468 0.453669 0.642858 0.855452 1.08772 1.3354 1.59271 1.8531 2.08708 2.32066 2.55471 0 0.123012 0.234008 0.383023 0.559789 0.76023 0.985499 1.21364 1.46601 1.72155 1.97177 2.21853 2.46301 0 0.0654562 0.168406 0.318532 0.500019 0.706169 0.937335 1.18874 1.44754 1.70793 1.95748 2.20496 2.44999 0 0.0532014 0.159926 0.308462 0.49022 0.700188 0.93451 1.18569 1.44547 1.72026 1.96936 2.21642 2.45969 0 0.0861923 0.198451 0.34896 0.532283 0.743395 0.9772 1.22892 1.49141 1.76405 2.01 2.25309 2.49305 0 0.155613 0.284382 0.443801 0.631832 0.844606 1.07784 1.32699 1.58356 1.84558 2.08114 2.31597 2.55002 0 0.0648194 0.0681645 0 0 0.0435617 0.0859464 0.0322327 0.0400372 0 0.0314997 0 0.12579 0.0880236 0.0626854 0.0383664 0.0694065 0.031418 0.0914595 0.183821 0.173165 0.13226 0.194988 0.10945 0.142139 0.121546 0.249375 0.207868 0.186007 0.147906 0.183682 0.128962 0.214609 0.32341 0.30896 0.267092 0.348862 0.242464 0.280493 0.256552 0.401711 0.361147 0.328955 0.287906 0.33575 0.264827 0.368849 0.488436 0.475581 0.436244 0.531107 0.411571 0.448046 0.423869 0.578528 0.54146 0.494952 0.455753 0.51707 0.432076 0.548979 0.676798 0.665952 0.630595 0.736388 0.607534 0.640338 0.617658 0.77765 0.744979 0.68339 0.647902 0.722889 0.62543 0.752055 0.887223 0.878029 0.846959 0.963227 0.827027 0.854725 0.834386 0.998083 0.969721 0.893162 0.861966 0.950868 0.84208 0.974709 1.11822 1.10904 1.0816 1.20922 1.067 1.0887 1.07476 1.2331 1.20799 1.11882 1.08889 1.20078 1.07833 1.21111 1.35134 1.34863 1.3325 1.46216 1.32679 1.33387 1.32907 1.47461 1.46246 1.3512 1.33549 1.45856 1.3312 1.46342 1.60175 1.60131 1.58888 1.71661 1.58326 1.58903 1.58531 1.72632 1.71534 1.60118 1.58917 1.71177 1.58488 1.71555 1.85226 1.85254 1.84204 1.9683 1.83797 1.84117 1.8381 1.97603 1.96666 1.85135 1.84078 1.96362 1.83763 1.9662 2.10101 2.10186 2.09237 2.21694 2.08918 2.09099 2.08829 2.22379 2.21509 2.09993 2.09032 2.21207 2.08752 2.21434 2.34753 2.34858 2.33967 2.4631 2.33681 2.33791 2.33521 2.46917 2.46105 2.3462 2.33701 2.45745 2.33425 2.45996 0 0 0.0178586 0.0541932 0.0159025 0.0262442 0 0.0273722 0 0.0633046 0.0294801 0.0638452 0.0303951 0.0705525 0.100252 0.161347 0.101252 0.113589 0.115835 0.174334 0.121836 0.174617 0.12313 0.183328 0.231953 0.312533 0.231775 0.245308 0.245971 0.324518 0.254431 0.324052 0.254917 0.333367 0.400406 0.495619 0.399521 0.41176 0.411848 0.505838 0.420494 0.505555 0.420508 0.513822 0.597303 0.704883 0.597167 0.60654 0.607267 0.713334 0.614287 0.714286 0.61488 0.719932 0.819109 0.938764 0.820392 0.8258 0.828222 0.944205 0.832325 0.946595 0.83428 0.949623 1.06372 1.19147 1.06539 1.0667 1.07009 1.19368 1.07252 1.19649 1.07447 1.19697 1.32194 1.45469 1.32417 1.32168 1.32788 1.45596 1.32622 1.46015 1.33218 1.45892 1.58357 1.71536 1.59149 1.58759 1.59664 1.71504 1.5866 1.72718 1.59785 1.71554 1.84178 1.96872 1.85206 1.84194 1.85413 1.96753 1.84181 1.97894 1.8539 1.96734 2.09289 2.21731 2.10292 2.09186 2.10245 2.21548 2.09115 2.22523 2.10173 2.21474 2.33986 2.46262 2.34876 2.33807 2.34739 2.46053 2.33721 2.4686 2.34653 2.45942 0 0 0.0310788 0.0676859 0.0422609 0.0315693 0 0.0433468 0 0.0738284 0.0368797 0.087737 0.0414928 0.0788096 0.11519 0.17614 0.136336 0.125853 0.144299 0.186933 0.132322 0.207729 0.147925 0.19435 0.245976 0.325911 0.269769 0.257713 0.280544 0.336813 0.265909 0.360303 0.286428 0.344658 0.413814 0.509463 0.438634 0.424386 0.449114 0.519025 0.43242 0.543892 0.455311 0.526018 0.612238 0.721307 0.637553 0.620846 0.646736 0.728857 0.627889 0.7545 0.652291 0.734557 0.836439 0.956584 0.861814 0.842566 0.869145 0.961444 0.848371 0.987574 0.873799 0.965927 1.08153 1.20956 1.10642 1.08478 1.11191 1.21255 1.09013 1.23847 1.11598 1.21666 1.34175 1.47496 1.3655 1.34284 1.36896 1.47522 1.34836 1.50011 1.37279 1.48001 1.60715 1.74103 1.63148 1.60839 1.63402 1.74258 1.61164 1.76639 1.63851 1.74618 1.86983 1.9976 1.89586 1.87361 1.90057 1.99692 1.87241 2.02196 1.89912 1.99604 2.12017 2.24265 2.14394 2.11918 2.14323 2.24124 2.11859 2.26376 2.14254 2.24047 2.36391 2.48511 2.38522 2.36236 2.38404 2.48342 2.3616 2.50355 2.38326 2.4823 0 0 0.0646318 0.117339 0.0823379 0.0583387 0 0.0844506 0 0.11574 0.0567094 0.151339 0.0802697 0.11578 0.175582 0.238733 0.2179 0.17658 0.216975 0.243451 0.179174 0.288995 0.21854 0.246613 0.31264 0.392992 0.362512 0.318562 0.366732 0.399999 0.323053 0.45156 0.369156 0.404407 0.482641 0.578533 0.537009 0.489898 0.542759 0.585435 0.494923 0.640701 0.54609 0.590026 0.681729 0.790605 0.738472 0.688665 0.74417 0.796471 0.693516 0.853483 0.747798 0.800854 0.905098 1.02453 0.962394 0.911022 0.96731 1.02876 0.91541 1.0857 0.970992 1.03299 1.14766 1.27463 1.20386 1.15231 1.20771 1.27753 1.15642 1.33274 1.21154 1.282 1.40375 1.53533 1.45747 1.40733 1.46084 1.53738 1.41161 1.58952 1.46507 1.54313 1.66783 1.79946 1.71708 1.67095 1.72139 1.80337 1.67697 1.84972 1.72608 1.81096 1.92876 2.05581 1.97192 1.93474 1.977 2.05395 1.93302 2.09364 1.9755 2.05337 2.17413 2.29366 2.21211 2.17353 2.2109 2.29242 2.17257 2.32796 2.21021 2.29149 2.41245 2.53143 2.44691 2.41126 2.44497 2.53011 2.41017 2.56204 2.44427 2.52871 0 0.0653747 0 0.0380181 0 0.0336016 0 0.129607 0.0929499 0.0641254 0.0378139 0.077266 0.0317121 0.0943274 0.1909 0.151209 0.132168 0.259648 0.219498 0.189469 0.152302 0.197247 0.133871 0.219835 0.33397 0.292795 0.269449 0.413602 0.373904 0.3335 0.293523 0.349744 0.270703 0.374551 0.499705 0.460372 0.436414 0.590087 0.553453 0.499586 0.461165 0.529852 0.437658 0.554127 0.687702 0.651592 0.628865 0.788292 0.755641 0.687333 0.652475 0.73382 0.630134 0.756074 0.897761 0.864321 0.843463 1.00681 0.978061 0.897335 0.866364 0.960852 0.844988 0.978779 1.12123 1.09159 1.08016 1.23573 1.21171 1.12258 1.08993 1.20524 1.08081 1.21216 1.3528 1.33649 1.3316 1.47565 1.46337 1.35128 1.33584 1.45927 1.33155 1.46324 1.60103 1.58866 1.58441 1.72542 1.71477 1.59986 1.58817 1.71118 1.58362 1.71429 1.85051 1.83997 1.83702 1.9744 1.96511 1.84952 1.83926 1.96222 1.83634 1.96454 2.09879 2.08906 2.08628 2.22159 2.21283 2.09774 2.08825 2.20975 2.08545 2.21199 2.34486 2.33545 2.33268 2.46658 2.45834 2.34362 2.33448 2.45474 2.33165 2.45725 0 0.0320072 0 0.0338515 0 0.0735981 0.0320764 0.0741144 0.0326076 0.074653 0.12564 0.12729 0.188207 0.127184 0.188357 0.12819 0.189308 0.258958 0.259047 0.338495 0.260585 0.337951 0.260809 0.339537 0.424752 0.424284 0.518458 0.426294 0.518016 0.426103 0.519408 0.617889 0.617957 0.723688 0.619185 0.724631 0.619556 0.724343 0.835475 0.836666 0.952365 0.835871 0.954306 0.837757 0.952968 1.07283 1.07606 1.19874 1.07486 1.2025 1.07694 1.19861 1.32701 1.33255 1.45951 1.32717 1.4655 1.33357 1.45895 1.58673 1.59709 1.71538 1.58562 1.72899 1.59671 1.71523 1.84145 1.85308 1.96634 1.84066 1.97742 1.85265 1.96571 2.08994 2.10038 2.21326 2.08902 2.22293 2.09943 2.21231 2.33559 2.34488 2.45784 2.3346 2.46595 2.34383 2.45668 0 0.0362383 0 0.0431846 0 0.0811019 0.0378381 0.0914761 0.0421125 0.0817078 0.135277 0.149837 0.198277 0.136234 0.216132 0.150702 0.199192 0.269327 0.289198 0.348775 0.271097 0.370031 0.290515 0.34995 0.43564 0.458162 0.529842 0.437508 0.553127 0.459573 0.530889 0.630653 0.654838 0.737809 0.63228 0.762459 0.656095 0.738591 0.850413 0.875953 0.968682 0.851751 0.994302 0.876902 0.969067 1.09132 1.11757 1.21849 1.09276 1.24434 1.11832 1.21885 1.34834 1.37385 1.48018 1.34986 1.50545 1.37427 1.48056 1.61134 1.63901 1.74667 1.6124 1.77364 1.64074 1.74611 1.87105 1.89784 1.99474 1.87074 2.01977 1.89718 1.9939 2.11703 2.14089 2.2389 2.11609 2.26137 2.13999 2.23782 2.35985 2.38148 2.48073 2.35883 2.50092 2.38044 2.4794 0 0.0578525 0 0.0843745 0 0.117347 0.0566001 0.152521 0.0814192 0.1177 0.179143 0.21893 0.248562 0.181143 0.291637 0.220776 0.249299 0.324516 0.370946 0.407155 0.326181 0.456204 0.371484 0.407859 0.496997 0.548297 0.592949 0.498479 0.646109 0.54887 0.593597 0.695622 0.749961 0.803627 0.696935 0.858978 0.750602 0.804153 0.9175 0.972938 1.03549 0.918443 1.09114 0.973609 1.03586 1.15844 1.21339 1.28429 1.1591 1.33852 1.21411 1.28454 1.41366 1.46686 1.54475 1.41405 1.59572 1.46718 1.54544 1.67805 1.72689 1.81005 1.67886 1.85464 1.72794 1.811 1.93248 1.9745 2.05179 1.93144 2.09124 1.97369 2.05095 2.17124 2.20847 2.28996 2.16999 2.32526 2.20759 2.28878 2.40861 2.44222 2.52719 2.40732 2.55902 2.44137 2.52569 0 0.0659702 0 0.0376203 0 0.0337032 0 0.128515 0.0918447 0.0620142 0.0370632 0.0768939 0.0302633 0.0900655 0.189202 0.149981 0.131545 0.258015 0.218079 0.184062 0.146079 0.196156 0.127245 0.212383 0.331987 0.291277 0.268125 0.411497 0.372181 0.325186 0.284992 0.348292 0.262123 0.365695 0.497513 0.458548 0.434747 0.58775 0.551377 0.49003 0.451762 0.528099 0.428412 0.545007 0.685291 0.649456 0.626959 0.78601 0.753254 0.677913 0.643144 0.731566 0.620973 0.747153 0.894764 0.862169 0.841657 1.00429 0.975306 0.888053 0.857471 0.958677 0.836098 0.970738 1.11835 1.08925 1.07807 1.23263 1.20918 1.11478 1.08312 1.20317 1.07459 1.20685 1.34997 1.33385 1.32911 1.47311 1.46065 1.34568 1.3304 1.45591 1.32643 1.45875 1.59876 1.5866 1.58276 1.7234 1.71296 1.5962 1.58461 1.70981 1.58067 1.71202 1.84866 1.83828 1.83526 1.97248 1.96322 1.84736 1.83709 1.96025 1.83416 1.96248 2.0967 2.08695 2.08404 2.21934 2.21047 2.09568 2.08602 2.2073 2.083 2.20972 2.3424 2.33292 2.33004 2.46384 2.45555 2.34129 2.33203 2.45186 2.32902 2.45462 0 0.0321748 0 0.0335813 0 0.0735002 0.0302364 0.0741122 0.0304922 0.0699304 0.1252 0.126909 0.187408 0.121054 0.187997 0.12221 0.18225 0.258032 0.258363 0.337228 0.252592 0.337187 0.25345 0.331398 0.42346 0.423297 0.516855 0.417773 0.516897 0.418233 0.511098 0.616323 0.616707 0.721629 0.610854 0.723223 0.611799 0.716505 0.833679 0.835272 0.950402 0.82843 0.952787 0.830743 0.946308 1.07108 1.07459 1.19639 1.06865 1.20105 1.07117 1.19349 1.32581 1.33031 1.45628 1.32166 1.46081 1.32739 1.45386 1.58675 1.59535 1.71435 1.58237 1.72752 1.59311 1.71276 1.83969 1.85088 1.96423 1.83816 1.975 1.84979 1.96313 2.08755 2.09769 2.21072 2.08633 2.22023 2.09645 2.20969 2.33285 2.34201 2.45494 2.33184 2.46287 2.3408 2.45369 0 0.03635 0 0.0429102 0 0.0814664 0.0360414 0.092059 0.0417515 0.078763 0.134936 0.150221 0.198193 0.132311 0.216483 0.148416 0.194364 0.268957 0.28925 0.348302 0.265589 0.369973 0.286515 0.344004 0.434918 0.457839 0.528939 0.431339 0.552713 0.454726 0.524686 0.629593 0.654227 0.736585 0.626148 0.76177 0.651076 0.732689 0.84914 0.875043 0.967339 0.846144 0.993228 0.871977 0.963747 1.08981 1.11602 1.21631 1.08691 1.24237 1.11323 1.21291 1.34526 1.37207 1.47749 1.34401 1.50405 1.36938 1.47482 1.60994 1.63763 1.74509 1.60854 1.77244 1.63673 1.74387 1.86884 1.89533 1.9921 1.86744 2.01699 1.89372 1.99069 2.11418 2.13796 2.236 2.11288 2.25833 2.13657 2.23468 2.35681 2.37833 2.47751 2.35553 2.49755 2.3769 2.47592 0 0.0580858 0 0.0831637 0 0.118141 0.055845 0.153255 0.0798981 0.118041 0.179596 0.219682 0.248991 0.180164 0.292422 0.22015 0.247797 0.324848 0.37137 0.40735 0.323848 0.456672 0.370161 0.405066 0.49705 0.548465 0.592839 0.49519 0.646172 0.546533 0.590111 0.69536 0.749832 0.803187 0.693187 0.858676 0.747786 0.800326 0.916844 0.972521 1.03469 0.914443 1.09057 0.970612 1.03185 1.15745 1.21269 1.28314 1.15488 1.33757 1.21108 1.2803 1.41262 1.46562 1.54334 1.40999 1.59505 1.4641 1.54133 1.67673 1.72559 1.80823 1.6746 1.85279 1.72469 1.8072 1.92986 1.97162 2.04899 1.928 2.08849 1.97006 2.0476 2.16831 2.20555 2.28688 2.16662 2.32218 2.20424 2.28533 2.40539 2.43888 2.52384 2.40371 2.55557 2.43767 2.52197 0 0.0635169 0 0.0359349 0 0.0304294 0 0.121228 0.0846145 0.0718923 0.0452769 0.0713671 0.0319575 0.0851554 0.178062 0.138001 0.119172 0.244289 0.203454 0.171182 0.130471 0.182136 0.108934 0.191644 0.315876 0.274946 0.251811 0.39544 0.355785 0.302681 0.261994 0.332351 0.239147 0.34231 0.480545 0.441798 0.418072 0.571489 0.535227 0.466908 0.428869 0.5123 0.406292 0.522657 0.668714 0.633392 0.611081 0.770536 0.738116 0.656076 0.621825 0.716774 0.600779 0.726825 0.878515 0.847456 0.827526 0.98966 0.961801 0.868025 0.83791 0.94396 0.819069 0.952466 1.1076 1.0809 1.06671 1.22185 1.20052 1.09742 1.06836 1.19421 1.06229 1.19507 1.34158 1.32613 1.32112 1.46785 1.45513 1.33729 1.32182 1.4514 1.31797 1.45183 1.59441 1.58239 1.57791 1.72072 1.71047 1.59279 1.58013 1.7075 1.57737 1.70957 1.84653 1.83585 1.83277 1.97043 1.96104 1.84603 1.83527 1.95766 1.83232 1.96045 2.09483 2.08473 2.08153 2.21716 2.20824 2.0945 2.08432 2.20481 2.08114 2.20781 2.34024 2.33058 2.32751 2.46112 2.45305 2.33968 2.33024 2.44884 2.32709 2.4523 0 0.0266156 0 0.0272156 0 0.0652199 0.0221597 0.0646909 0.0193353 0.0527373 0.112247 0.113775 0.173806 0.0997999 0.174619 0.101004 0.157947 0.242501 0.243358 0.322095 0.229265 0.322654 0.230541 0.307303 0.407815 0.408271 0.501978 0.39554 0.502783 0.396757 0.488887 0.601574 0.602773 0.707924 0.590749 0.710317 0.592987 0.697289 0.819918 0.822988 0.938875 0.811965 0.942045 0.815733 0.930549 1.06112 1.06471 1.18733 1.0557 1.19133 1.05936 1.18202 1.31555 1.32076 1.44994 1.31169 1.45226 1.31582 1.43991 1.58024 1.58479 1.71229 1.57188 1.7226 1.58193 1.71029 1.83653 1.84656 1.96121 1.83462 1.97102 1.84498 1.95936 2.08461 2.09413 2.208 2.08335 2.21705 2.09332 2.20684 2.32997 2.33877 2.45196 2.3293 2.45918 2.33803 2.4506 0 0.0319304 0 0.0407491 0 0.0756862 0.0314132 0.0895287 0.046755 0.0649297 0.124729 0.143443 0.187611 0.116239 0.208351 0.138259 0.173467 0.256333 0.279361 0.336106 0.246106 0.360021 0.270528 0.322519 0.422066 0.44713 0.516942 0.412242 0.542609 0.438139 0.504918 0.617536 0.64389 0.725717 0.609021 0.752338 0.635988 0.715623 0.838626 0.865487 0.957698 0.831738 0.984518 0.859113 0.949624 1.08035 1.10726 1.20752 1.07501 1.23438 1.10252 1.20117 1.33684 1.36416 1.46927 1.3325 1.49767 1.36037 1.46371 1.604 1.63134 1.74116 1.59976 1.76763 1.62967 1.73686 1.86445 1.8903 1.98817 1.86135 2.01245 1.88749 1.98497 2.11045 2.13375 2.2326 2.10846 2.25448 2.13212 2.23058 2.35325 2.37445 2.47383 2.35191 2.49332 2.37307 2.47177 0 0.057989 0 0.079663 0 0.118729 0.0684473 0.155347 0.0966012 0.117825 0.176808 0.217334 0.244638 0.177306 0.290758 0.220722 0.23805 0.318585 0.366733 0.400444 0.314102 0.452502 0.364659 0.391676 0.489268 0.542293 0.585127 0.483361 0.640899 0.538461 0.576156 0.687346 0.743127 0.795494 0.681263 0.853083 0.738939 0.787181 0.909079 0.965861 1.0273 0.903302 1.08507 0.962058 1.02002 1.1502 1.20644 1.27619 1.14477 1.33236 1.20323 1.27018 1.4061 1.4597 1.5372 1.40047 1.59066 1.45585 1.53177 1.67123 1.72038 1.80303 1.66614 1.84837 1.71842 1.79995 1.92479 1.96649 2.0446 1.92083 2.08446 1.96334 2.04146 2.16421 2.20141 2.283 2.16167 2.31844 2.19959 2.28078 2.4014 2.43484 2.51966 2.39942 2.55141 2.43306 2.51737 
