# vtk DataFile Version 5.1
vtk output
ASCII

DATASET UNSTRUCTURED_GRID
POINTS 2025 float
0 0 0
0.188212 -0.0185054 -0.0486539
0.391867 -0.0674658 -0.0494434
0.580872 -0.144529 -0.0376801
0.765029 -0.241232 -0.0180316
0.959575 -0.353664 -0.00723134
1.15436 -0.475419 0.00186883
1.35025 -0.604182 0.00861852
1.54876 -0.737015 0.0141242
1.74714 -0.87402 0.0193956
1.94858 -1.01211 0.0230146
2.15268 -1.15032 0.0269557
2.35861 -1.28559 0.0289027
0 0.25 0
0.227719 0.242893 -0.0177755
0.45013 0.185197 -0.0159936
0.668334 0.0977648 -0.00941455
0.876117 -0.0113515 -0.00142841
1.07999 -0.130673 0.0048518
1.28226 -0.258598 0.00952166
1.48319 -0.392259 0.0139766
1.68393 -0.528501 0.0179207
1.88507 -0.6672 0.0208836
2.08626 -0.806448 0.0239312
2.28932 -0.94436 0.0259825
2.49495 -1.07987 0.0286273
0 0.5 0
0.251543 0.48572 0.00886155
0.501402 0.422234 0.0106749
0.741829 0.330744 0.0131649
0.969372 0.21747 0.0153028
1.18725 0.0921618 0.0169688
1.39934 -0.0407547 0.018069
1.60707 -0.178711 0.0200112
1.81267 -0.318044 0.0219989
2.01676 -0.458854 0.0237538
2.22036 -0.5993 0.0253938
2.42521 -0.737751 0.0263291
2.63054 -0.874695 0.0289244
0 0.75 0
0.2723 0.717091 0.0310808
0.54647 0.649127 0.0334195
0.810361 0.555191 0.0340421
1.0599 0.437735 0.031537
1.29202 0.308479 0.0288766
1.51475 0.172203 0.0268578
1.72958 0.0318643 0.025582
1.93997 -0.109522 0.0260178
2.14775 -0.251931 0.026486
2.35356 -0.393366 0.0267316
2.55902 -0.531994 0.0274384
2.76481 -0.669006 0.0288602
0 1 0
0.297311 0.935108 0.0496816
0.596173 0.866802 0.0550334
0.88165 0.768757 0.0535258
1.15228 0.648867 0.0492401
1.4039 0.516115 0.0398675
1.63491 0.378103 0.0345465
1.85581 0.236915 0.0315791
2.07061 0.0944953 0.0292602
2.28093 -0.0479812 0.0278068
2.48769 -0.188399 0.027722
2.69424 -0.327543 0.0282292
2.90063 -0.464545 0.0286611
0 0 0.25
0.192609 -0.0466292 0.229345
0.380298 -0.0901971 0.226494
0.564476 -0.16182 0.232192
0.754942 -0.251823 0.242309
0.949938 -0.35929 0.248966
1.14648 -0.478208 0.254249
1.34428 -0.606125 0.25868
1.54356 -0.737946 0.263145
1.74385 -0.873607 0.266739
1.94545 -1.01135 0.269477
2.14896 -1.14898 0.272894
2.35389 -1.285 0.275149
0 0.25 0.25
0.226598 0.225983 0.24272
0.444362 0.166304 0.241624
0.657501 0.0826128 0.245763
0.865735 -0.0212672 0.251218
1.07103 -0.137012 0.255223
1.27493 -0.262392 0.258588
1.47694 -0.394357 0.262234
1.67893 -0.529558 0.265408
1.8805 -0.667459 0.268384
2.08253 -0.806064 0.27023
2.28604 -0.943638 0.272422
2.49174 -1.08005 0.274131
0 0.5 0.25
0.247623 0.473088 0.253279
0.49515 0.406493 0.25518
0.733645 0.316433 0.257736
0.961678 0.207255 0.259672
1.18051 0.0844448 0.261894
1.39384 -0.0457804 0.263447
1.60275 -0.18143 0.265374
1.80877 -0.319335 0.267433
2.01331 -0.459568 0.269835
2.21733 -0.599319 0.271211
2.42132 -0.737809 0.272649
2.62732 -0.873929 0.273865
0 0.75 0.25
0.265368 0.704593 0.262635
0.539482 0.635139 0.266156
0.803918 0.541477 0.268054
1.05432 0.427053 0.26787
1.28785 0.299994 0.267714
1.51104 0.166347 0.267815
1.72718 0.0283371 0.268202
1.93813 -0.112063 0.269589
2.14583 -0.253139 0.270751
2.35196 -0.393399 0.271738
2.55738 -0.532584 0.272906
2.76393 -0.669631 0.274432
0 1 0.25
0.289942 0.919615 0.270325
0.589447 0.85336 0.277097
0.874996 0.755799 0.277595
1.14747 0.637672 0.276248
1.39922 0.508657 0.273642
1.63107 0.37309 0.271931
1.85359 0.233492 0.271307
2.06911 0.0920972 0.271093
2.27942 -0.0493129 0.271623
2.48731 -0.189252 0.272438
2.6939 -0.327601 0.273467
2.89914 -0.465457 0.274905
0 0 0.5
0.191407 -0.0518097 0.503937
0.379005 -0.0983236 0.501966
0.562019 -0.169056 0.504426
0.752022 -0.25555 0.505479
0.94704 -0.361725 0.506475
1.14277 -0.479978 0.508052
1.34107 -0.606677 0.509252
1.54099 -0.738281 0.512189
1.74177 -0.873115 0.515051
1.94427 -1.01085 0.516493
2.14814 -1.1477 0.519195
2.35237 -1.28355 0.521062
0 0.25 0.5
0.226232 0.222684 0.501653
0.442676 0.160921 0.501953
0.654171 0.0780084 0.503516
0.862264 -0.0242861 0.505074
1.06823 -0.13909 0.506587
1.27139 -0.263499 0.507963
1.47335 -0.394939 0.510265
1.67573 -0.529453 0.512393
1.87843 -0.666548 0.515035
2.08069 -0.805675 0.516828
2.28492 -0.942787 0.518406
2.48984 -1.07906 0.519953
0 0.5 0.5
0.246534 0.470487 0.500093
0.492704 0.402451 0.501678
0.730494 0.312738 0.503399
0.958067 0.204056 0.505228
1.17791 0.0826674 0.507041
1.39101 -0.047158 0.50882
1.5997 -0.182076 0.510695
1.80577 -0.320093 0.513105
2.01153 -0.459028 0.515164
2.21563 -0.599049 0.517264
2.42072 -0.737557 0.518186
2.62621 -0.873464 0.519579
0 0.75 0.5
0.263992 0.701068 0.49945
0.53697 0.631317 0.500375
0.801117 0.537849 0.502997
1.05123 0.424022 0.504658
1.28484 0.298317 0.507077
1.50825 0.165288 0.509013
1.72443 0.0276722 0.510785
1.93533 -0.112522 0.513437
2.14392 -0.252543 0.515164
2.35002 -0.393035 0.5172
2.5553 -0.532153 0.518621
2.76157 -0.668081 0.52053
0 1 0.5
0.288456 0.915287 0.49817
0.58675 0.849077 0.500499
0.871828 0.752243 0.502677
1.14442 0.634335 0.504364
1.39696 0.506857 0.506544
1.62896 0.371671 0.508871
1.8514 0.232602 0.510931
2.06656 0.0921219 0.513091
2.27686 -0.0478539 0.515471
2.48391 -0.188298 0.517126
2.68965 -0.326905 0.518872
2.89621 -0.461441 0.519915
0 0 0.75
0.193294 -0.0449995 0.778085
0.378166 -0.0918478 0.778945
0.562637 -0.161024 0.774951
0.752984 -0.250664 0.768612
0.9475 -0.358936 0.76399
1.14287 -0.478222 0.762066
1.34007 -0.605215 0.760661
1.53921 -0.736857 0.761642
1.7402 -0.872615 0.76262
1.94323 -1.01001 0.763248
2.14777 -1.14733 0.765379
2.35404 -1.28304 0.766855
0 0.25 0.75
0.226543 0.226535 0.760926
0.443047 0.16702 0.762677
0.655557 0.0833567 0.761143
0.863471 -0.0195822 0.759386
1.0684 -0.135802 0.758428
1.27106 -0.261233 0.757878
1.47224 -0.392969 0.758385
1.67396 -0.528461 0.759821
1.87658 -0.665658 0.761445
2.07939 -0.804077 0.762786
2.28381 -0.941724 0.764576
2.48893 -1.07725 0.766593
0 0.5 0.75
0.246819 0.472971 0.747068
0.493664 0.407201 0.748476
0.731415 0.317558 0.749361
0.959037 0.208516 0.750376
1.17872 0.0858214 0.75238
1.39123 -0.0452019 0.754498
1.59924 -0.18019 0.755923
1.80452 -0.318493 0.758581
2.00911 -0.458081 0.761206
2.21413 -0.597721 0.762358
2.41913 -0.736151 0.76455
2.62433 -0.871717 0.766537
0 0.75 0.75
0.264951 0.703606 0.735909
0.538169 0.636314 0.735308
0.801816 0.542905 0.738003
1.05137 0.428593 0.741957
1.28467 0.302063 0.746503
1.50721 0.168228 0.75041
1.7228 0.0302321 0.753464
1.93333 -0.110319 0.757184
2.14123 -0.25139 0.759526
2.34712 -0.391021 0.762646
2.55204 -0.530281 0.765662
2.75931 -0.666451 0.766346
0 1 0.75
0.288561 0.920513 0.724847
0.588927 0.854998 0.724048
0.872982 0.757471 0.728121
1.14518 0.639338 0.732604
1.39603 0.510363 0.739877
1.62778 0.374267 0.74616
1.85015 0.234992 0.750889
2.06493 0.0937146 0.754981
2.27557 -0.0477671 0.758859
2.48353 -0.186953 0.761736
2.68983 -0.325789 0.763653
2.89478 -0.46227 0.76697
0 0 1
0.18705 -0.0172637 1.05379
0.382148 -0.0654279 1.05366
0.569721 -0.140136 1.04653
0.762181 -0.24034 1.03024
0.954166 -0.352347 1.02123
1.14767 -0.474638 1.01536
1.34352 -0.601495 1.01201
1.54083 -0.733584 1.01132
1.74021 -0.870362 1.01012
1.94186 -1.00835 1.01013
2.14709 -1.14524 1.01071
2.351 -1.28175 1.01353
0 0.25 1
0.224103 0.242574 1.02132
0.447725 0.186037 1.02231
0.66411 0.098832 1.01801
0.871936 -0.00893134 1.01289
1.07502 -0.128636 1.00999
1.27542 -0.256696 1.00775
1.47522 -0.388766 1.00664
1.67527 -0.524804 1.00716
1.87558 -0.663482 1.00839
2.07751 -0.802562 1.00909
2.28238 -0.939668 1.01063
2.48718 -1.07625 1.01292
0 0.5 1
0.250134 0.485354 0.993271
0.498721 0.42443 0.993821
0.737397 0.332633 0.994412
0.964232 0.220188 0.995108
1.18238 0.0948159 0.997412
1.39302 -0.0387029 0.999973
1.60006 -0.175383 1.00191
1.8047 -0.314299 1.00363
2.00833 -0.455412 1.00636
2.21191 -0.596006 1.00817
2.41675 -0.734259 1.0105
2.62191 -0.870053 1.01318
0 0.75 1
0.271291 0.716628 0.970734
0.5435 0.652365 0.968246
0.805891 0.557774 0.971958
1.05417 0.441333 0.978457
1.28651 0.311952 0.985786
1.50824 0.174971 0.991429
1.72343 0.0350724 0.995675
1.93378 -0.106334 1.00018
2.14015 -0.248552 1.00389
2.34504 -0.389198 1.00798
2.5503 -0.528272 1.01141
2.75603 -0.665032 1.01379
0 1 1
0.301426 0.938908 0.946449
0.594463 0.871252 0.945683
0.876195 0.77262 0.95211
1.14831 0.65119 0.959764
1.39525 0.520921 0.973707
1.62715 0.381726 0.983038
1.84932 0.240247 0.990485
2.06422 0.0981839 0.996335
2.27332 -0.0447793 1.0023
2.48096 -0.185098 1.00631
2.68648 -0.323599 1.01018
2.89098 -0.460781 1.01382
0 0 0.125
0.103183 -0.0160006 0.10344
0.103724 -0.0148458 -0.0355386
0 0.125 0
0 0.125 0.125
0.107731 0.125747 -0.0218335
0.211019 0.114755 -0.0341887
0.116275 0.251397 -0.0117009
0.114058 0.117147 0.108221
0 0.125 0.25
0.116113 0.245641 0.1162
0 0.25 0.125
0.199161 -0.0386286 0.085268
0.217849 0.101102 0.0990539
0.104498 -0.0284962 0.233962
0.11074 0.111198 0.238112
0.229136 0.232653 0.111497
0.115812 0.241285 0.24383
0.211104 0.0936052 0.235161
0.290323 -0.0536283 0.0857708
0.290255 -0.0354791 -0.0499412
0.318684 0.0908988 -0.0339291
0.423618 0.060762 -0.0323905
0.34001 0.218922 -0.0182161
0.317113 0.0774739 0.0998743
0.338312 0.20658 0.112335
0.384018 -0.0812782 0.0881415
0.418173 0.048132 0.101093
0.287392 -0.063206 0.22482
0.313552 0.0710142 0.23309
0.44781 0.173206 0.111956
0.336701 0.199269 0.241156
0.41505 0.0398993 0.233516
0.477581 -0.114134 0.0920798
0.486405 -0.102273 -0.0430013
0.525739 0.0231807 -0.0270768
0.628295 -0.0225009 -0.0242392
0.560044 0.14516 -0.012797
0.520255 0.0114605 0.102422
0.555666 0.134471 0.114661
0.570326 -0.154981 0.0965204
0.617714 -0.0312714 0.108606
0.472412 -0.123755 0.229507
0.513869 0.00471542 0.237253
0.661673 0.0886486 0.11812
0.551567 0.127521 0.243904
0.614399 -0.0386727 0.238096
0.662968 -0.197899 0.106567
0.673545 -0.192383 -0.0279478
0.72556 -0.0715995 -0.0152317
0.823672 -0.12644 -0.00945291
0.773116 0.045868 -0.00555482
0.717838 -0.0793315 0.11381
0.766515 0.0383182 0.121558
0.759847 -0.247195 0.110696
0.817048 -0.131842 0.11819
0.659833 -0.204638 0.238228
0.713108 -0.0841315 0.243995
0.870003 -0.0164931 0.124629
0.76213 0.033068 0.248921
[...]
POINT_DATA 2025
SCALARS scalars float 1
LOOKUP_TABLE default
0 0.0807927 0.136708 0.225639 0.337238 0.457687 0.587789 0.724507 0.864298 1.00854 1.15281 1.29643 1.437 0 0.0293755 0.08332 0.173013 0.28923 0.416942 0.553331 0.695614 0.840407 0.987353 1.13483 1.28039 1.42283 0 0.0168771 0.0785081 0.169963 0.284597 0.412986 0.55034 0.693886 0.839508 0.987099 1.1346 1.27993 1.42377 0 0.0504609 0.115982 0.206768 0.319519 0.444455 0.578609 0.718881 0.862009 1.00748 1.15302 1.29643 1.43865 0 0.0944325 0.173262 0.271422 0.385887 0.509331 0.6373 0.771033 0.908725 1.04881 1.18879 1.32901 1.46819 0 0.0767766 0.151713 0.246824 0.351465 0.468111 0.594706 0.729434 0.867801 1.00978 1.15358 1.2969 1.43851 0 0.0343144 0.10085 0.191292 0.302679 0.426424 0.559709 0.699933 0.843228 0.98924 1.13576 1.28083 1.42406 0 0.0272149 0.0937756 0.184456 0.295401 0.421493 0.556171 0.697328 0.841536 0.988526 1.13528 1.2809 1.42378 0 0.0495744 0.122527 0.216136 0.327971 0.451943 0.584029 0.722253 0.864502 1.00875 1.15315 1.29717 1.43933 0 0.0920341 0.173891 0.275717 0.392068 0.514044 0.640841 0.773771 0.910773 1.04995 1.18953 1.32899 1.46914 0 0.0783128 0.155921 0.252857 0.35613 0.471881 0.59838 0.731689 0.869425 1.01037 1.15365 1.29608 1.43783 0 0.0362466 0.105948 0.196918 0.306969 0.429506 0.562146 0.701844 0.844305 0.989116 1.13603 1.28038 1.42375 0 0.029716 0.0978359 0.188305 0.298946 0.423571 0.557977 0.698523 0.842881 0.988348 1.13537 1.28074 1.42355 0 0.050896 0.124308 0.218243 0.330012 0.45308 0.58484 0.722861 0.865047 1.00825 1.15296 1.29699 1.43813 0 0.0930511 0.17408 0.276103 0.393174 0.514616 0.641488 0.774146 0.910409 1.04831 1.18853 1.32841 1.46526 0 0.0776484 0.155297 0.248307 0.352414 0.469614 0.59698 0.731058 0.869147 1.0107 1.15338 1.29587 1.43657 0 0.0349314 0.10144 0.191869 0.302329 0.426491 0.56021 0.700451 0.844038 0.988941 1.13497 1.27975 1.42234 0 0.0273729 0.0930276 0.183387 0.294349 0.420275 0.555964 0.696723 0.841556 0.987964 1.1344 1.27975 1.42233 0 0.0507393 0.120819 0.213816 0.325586 0.44929 0.581817 0.72029 0.862928 1.00733 1.15129 1.29559 1.43685 0 0.0918577 0.172067 0.272807 0.389173 0.511051 0.638657 0.771536 0.908622 1.04812 1.18713 1.32722 1.46615 0 0.0845798 0.145082 0.233032 0.339464 0.460561 0.591317 0.726059 0.865514 1.00872 1.15256 1.29429 1.43676 0 0.0343548 0.0855672 0.174795 0.289158 0.417233 0.554289 0.695393 0.840132 0.987274 1.13422 1.27832 1.422 0 0.0161186 0.0758325 0.167934 0.282131 0.410796 0.549222 0.69183 0.837399 0.985522 1.13326 1.2785 1.42133 0 0.0492293 0.111504 0.202141 0.314125 0.439797 0.575152 0.715434 0.858891 1.00458 1.14972 1.29383 1.43598 0 0.0961486 0.16867 0.264425 0.381162 0.501305 0.63144 0.766277 0.904107 1.04504 1.18527 1.32516 1.46491 0 0.0345954 0.0440008 0 0 0.0278473 0.0528525 0.0146623 0.0215158 0 0.0132448 0 0.0752024 0.0477286 0.038595 0.0231335 0.0303073 0.0140867 0.0521413 0.107634 0.104568 0.0740646 0.104928 0.0502193 0.0789993 0.0582385 0.146344 0.114787 0.110924 0.0835243 0.0937613 0.0641771 0.121369 0.189322 0.177532 0.144752 0.192759 0.123994 0.156117 0.135134 0.238983 0.2054 0.197531 0.164259 0.184074 0.142936 0.21288 0.290623 0.279958 0.247418 0.30725 0.228213 0.258024 0.237887 0.34494 0.315413 0.297173 0.264539 0.296509 0.244541 0.321547 0.402843 0.395057 0.368106 0.432513 0.35126 0.375221 0.357832 0.463221 0.438193 0.407718 0.380268 0.42212 0.362684 0.442567 0.526279 0.52098 0.498113 0.566359 0.483833 0.502813 0.488322 0.591222 0.570031 0.529827 0.506438 0.556691 0.491734 0.57314 0.65823 0.654611 0.6354 0.706487 0.623523 0.638542 0.626437 0.726497 0.708861 0.660794 0.641261 0.697669 0.628865 0.711212 0.795837 0.793364 0.777295 0.849356 0.767396 0.779391 0.769274 0.865817 0.850978 0.797691 0.781204 0.841718 0.770953 0.852527 0.936987 0.935452 0.921708 0.995253 0.913363 0.922971 0.914592 1.00858 0.995863 0.93809 0.924199 0.988027 0.91569 0.99694 1.08059 1.07973 1.06802 1.14156 1.06083 1.06868 1.06147 1.15259 1.14182 1.08116 1.0694 1.13493 1.0621 1.14248 1.22435 1.22407 1.21403 1.28642 1.20762 1.2141 1.20774 1.29577 1.28625 1.22478 1.21443 1.28009 1.20806 1.28675 1.36663 1.36639 1.35717 1.42815 1.35169 1.35739 1.35179 1.43742 1.42877 1.36712 1.35777 1.42351 1.35214 1.4294 0 0 0.00734318 0.0138381 0.00758113 0.00647226 0 0.00793203 0 0.0206088 0.0100897 0.0228264 0.0104281 0.0266054 0.0388818 0.0733314 0.0426877 0.0488051 0.0518891 0.0843869 0.0556696 0.0873807 0.0573127 0.0916891 0.116221 0.165501 0.120736 0.126706 0.130027 0.175407 0.133759 0.178221 0.13608 0.182332 0.221425 0.281584 0.224609 0.229494 0.232299 0.288728 0.235789 0.290725 0.237505 0.293823 0.34445 0.410335 0.347003 0.350382 0.352736 0.41547 0.354821 0.417709 0.356765 0.419424 0.478253 0.547952 0.480648 0.482287 0.484739 0.551326 0.485536 0.553627 0.487738 0.553956 0.618866 0.691279 0.621339 0.621512 0.624021 0.69339 0.623792 0.695637 0.626044 0.695152 0.763748 0.837004 0.766159 0.765376 0.767757 0.838351 0.76681 0.840608 0.768983 0.839423 0.910481 0.984535 0.912944 0.911492 0.913923 0.98538 0.912391 0.987635 0.914728 0.986148 1.05833 1.13228 1.06075 1.05886 1.06121 1.13262 1.0595 1.13471 1.06168 1.13316 1.20537 1.27805 1.20746 1.20547 1.2076 1.27805 1.20584 1.28012 1.20795 1.27877 1.3498 1.42137 1.35213 1.35007 1.35204 1.4219 1.35037 1.42371 1.35224 1.42208 0 0 0.016927 0.0331365 0.0267649 0.0148753 0 0.0233622 0 0.0341766 0.0152872 0.0475564 0.0223487 0.0359578 0.0587667 0.0939057 0.0789551 0.0646011 0.0816717 0.100409 0.0675768 0.119526 0.0829806 0.104855 0.135967 0.18402 0.158627 0.143171 0.163621 0.191215 0.147788 0.212682 0.167027 0.195803 0.238231 0.297038 0.261022 0.244786 0.267017 0.3029 0.24913 0.32376 0.2704 0.306927 0.359337 0.424246 0.37992 0.364292 0.385042 0.428924 0.368066 0.448388 0.388357 0.43229 0.491748 0.560517 0.51051 0.495403 0.514306 0.563881 0.498304 0.581489 0.516943 0.566202 0.631347 0.702935 0.648038 0.633683 0.650603 0.704772 0.635604 0.720559 0.652446 0.706238 0.774977 0.847703 0.789893 0.77639 0.791605 0.848908 0.777666 0.863235 0.792966 0.849917 0.921077 0.994548 0.934581 0.921894 0.935525 0.995319 0.922721 1.00791 0.936345 0.995897 1.06797 1.14121 1.0802 1.06839 1.08055 1.14159 1.06878 1.15272 1.08085 1.14178 1.21385 1.2859 1.22469 1.21404 1.22481 1.2864 1.21435 1.29649 1.22519 1.28681 1.35782 1.42911 1.36765 1.35797 1.36777 1.42922 1.35804 1.43859 1.36811 1.42946 0 0 0.0373625 0.0704538 0.0502563 0.033225 0 0.0483091 0 0.0676968 0.0316939 0.0904397 0.0467623 0.0668689 0.103653 0.141937 0.132088 0.103373 0.130013 0.143947 0.104392 0.173839 0.130578 0.145203 0.185868 0.234815 0.219682 0.189201 0.221845 0.240013 0.191495 0.27391 0.222612 0.241796 0.290559 0.348877 0.326963 0.295274 0.330352 0.352575 0.297843 0.388436 0.332137 0.356376 0.40919 0.472467 0.44647 0.414347 0.451159 0.476392 0.416482 0.511609 0.452104 0.478884 0.537526 0.603781 0.572006 0.540809 0.575309 0.60682 0.543033 0.63933 0.57624 0.608708 0.672223 0.741384 0.703298 0.674495 0.705642 0.743282 0.676073 0.772627 0.706613 0.74458 0.811547 0.882241 0.839397 0.813096 0.841159 0.883581 0.814232 0.909863 0.841894 0.884437 0.953773 1.02521 0.978532 0.954575 0.979671 1.02594 0.95525 1.04916 0.980039 1.02654 1.09719 1.16851 1.11879 1.09733 1.11923 1.16852 1.09767 1.18895 1.11965 1.16886 1.23956 1.31054 1.25889 1.23975 1.2592 1.31073 1.24006 1.32872 1.25946 1.31075 1.38119 1.4514 1.39857 1.38119 1.3985 1.45161 1.38131 1.46798 1.39877 1.4521 0 0.0352428 0 0.0196491 0 0.0138292 0 0.0753493 0.0490494 0.038971 0.022453 0.034239 0.0144059 0.0529196 0.113113 0.0855835 0.0667929 0.154832 0.124554 0.113566 0.0865915 0.104858 0.0681321 0.126163 0.200305 0.167838 0.146861 0.250616 0.216971 0.202911 0.169923 0.195644 0.148381 0.218738 0.300975 0.268991 0.248015 0.354697 0.324908 0.302305 0.269822 0.305492 0.249758 0.326294 0.410662 0.383218 0.365368 0.470491 0.444986 0.411855 0.384246 0.428641 0.366416 0.44604 0.53236 0.508734 0.493736 0.596745 0.57528 0.533552 0.509792 0.56143 0.494586 0.576299 0.662767 0.642939 0.630295 0.730402 0.712451 0.663674 0.643805 0.700942 0.631063 0.713406 0.799004 0.782341 0.771864 0.86846 0.853402 0.799609 0.783039 0.843799 0.772442 0.853972 0.938825 0.924819 0.916061 1.00996 0.997288 0.939155 0.925058 0.989134 0.916286 0.997187 1.08142 1.0696 1.0622 1.15313 1.14231 1.08149 1.06965 1.13547 1.06232 1.14261 1.22465 1.21426 1.20796 1.29598 1.28635 1.22463 1.21434 1.28037 1.208 1.28619 1.36691 1.35755 1.35207 1.43814 1.42923 1.36671 1.35735 1.42387 1.35187 1.42896 0 0.0100965 0 0.0111723 0 0.0274769 0.0114362 0.0284641 0.011641 0.0293118 0.0586319 0.0601584 0.0952709 0.0600225 0.096759 0.0608923 0.0967187 0.137679 0.139271 0.186055 0.138881 0.18726 0.14016 0.187284 0.238969 0.24044 0.296659 0.240404 0.298039 0.241379 0.29798 0.35749 0.359049 0.421456 0.35824 0.423167 0.359637 0.422028 0.487256 0.489248 0.55545 0.487877 0.55753 0.489683 0.556123 0.624957 0.627048 0.696172 0.625615 0.698083 0.627475 0.696711 0.767603 0.76971 0.839981 0.76807 0.842269 0.770145 0.840638 0.912772 0.915062 0.986224 0.912968 0.988382 0.915263 0.986102 1.05954 1.06175 1.13314 1.0596 1.13505 1.06175 1.13327 1.20582 1.20787 1.27847 1.20573 1.28041 1.20795 1.2784 1.35019 1.35222 1.42198 1.35014 1.42378 1.35207 1.42176 0 0.0151386 0 0.0227913 0 0.0365835 0.0154135 0.0478849 0.0221277 0.0375047 0.0700547 0.0842967 0.10716 0.069918 0.123773 0.0842528 0.107687 0.150342 0.168642 0.198443 0.150654 0.218286 0.168978 0.198802 0.251751 0.272465 0.309181 0.252185 0.329172 0.272572 0.309743 0.370044 0.389922 0.433752 0.370358 0.452705 0.390022 0.434028 0.499551 0.517949 0.567341 0.499831 0.584642 0.517967 0.567514 0.636427 0.653132 0.706949 0.63663 0.722672 0.653135 0.707212 0.77831 0.79343 0.850537 0.778578 0.864633 0.793505 0.850891 0.922936 0.936434 0.995806 0.923103 1.00843 0.936425 0.995627 1.06875 1.08078 1.14171 1.06873 1.15294 1.08066 1.14169 1.21423 1.22499 1.2865 1.21417 1.29656 1.22497 1.2866 1.35791 1.36779 1.4293 1.3578 1.43864 1.36746 1.42885 0 0.0318582 0 0.0468919 0 0.0673929 0.0305913 0.0903719 0.0461577 0.0675272 0.103925 0.129743 0.1461 0.104754 0.17435 0.130836 0.145907 0.192359 0.223426 0.244043 0.192652 0.27612 0.222976 0.242952 0.299514 0.333322 0.356874 0.299193 0.391305 0.332822 0.358044 0.41829 0.453772 0.479915 0.417744 0.513951 0.452968 0.479858 0.543987 0.577405 0.609483 0.5439 0.641308 0.576878 0.609395 0.676785 0.707454 0.745099 0.676695 0.774056 0.707068 0.745016 0.814674 0.842378 0.884691 0.814568 0.910552 0.841777 0.884612 0.955267 0.979873 1.02618 0.95511 1.04918 0.979137 1.02564 1.0974 1.11904 1.16865 1.09707 1.18878 1.11832 1.16837 1.23967 1.25882 1.3105 1.2396 1.32814 1.25822 1.31062 1.38099 1.39801 1.45133 1.38048 1.46725 1.39678 1.45006 0 0.036774 0 0.019038 0 0.0137659 0 0.0748013 0.0489393 0.0371561 0.021652 0.034346 0.0134339 0.0520951 0.112928 0.0856387 0.0672983 0.155073 0.124957 0.113369 0.0845295 0.10502 0.0652211 0.122979 0.202108 0.169189 0.147136 0.25162 0.217618 0.200087 0.166049 0.195933 0.143905 0.213912 0.301222 0.269198 0.248207 0.355118 0.325001 0.298194 0.265399 0.305561 0.244987 0.322093 0.411262 0.383417 0.365286 0.471288 0.44549 0.408751 0.380664 0.428764 0.362579 0.443453 0.533264 0.509315 0.493857 0.597739 0.575857 0.531574 0.50756 0.561713 0.492059 0.574618 0.66365 0.643605 0.630574 0.731262 0.713151 0.662667 0.642452 0.701261 0.62943 0.712413 0.799612 0.782818 0.77209 0.86902 0.853744 0.799007 0.78214 0.844144 0.771381 0.853722 0.939237 0.92504 0.916196 1.01019 0.997298 0.938999 0.92489 0.989078 0.915854 0.997298 1.08162 1.06965 1.06205 1.15316 1.14229 1.08145 1.0694 1.13519 1.06174 1.14194 1.22446 1.21397 1.20754 1.29554 1.28587 1.22415 1.21371 1.27981 1.20719 1.28576 1.36654 1.35718 1.35152 1.43701 1.42841 1.36607 1.35683 1.42296 1.35117 1.42769 0 0.0100846 0 0.0112128 0 0.0275304 0.0103453 0.0285189 0.0104104 0.0270224 0.0587356 0.0598962 0.0951899 0.0559219 0.0964188 0.0567664 0.0917278 0.137698 0.138852 0.185893 0.133909 0.186798 0.135191 0.182252 0.238948 0.239948 0.296498 0.235526 0.297489 0.236617 0.293322 0.357149 0.358494 0.421123 0.354209 0.422616 0.355708 0.418802 0.487113 0.488821 0.555476 0.485129 0.557234 0.486958 0.554031 0.624981 0.6268 0.696166 0.62383 0.697881 0.625536 0.695152 0.767732 0.769595 0.840354 0.766848 0.84224 0.768578 0.839753 0.912766 0.914864 0.985957 0.912278 0.988067 0.914364 0.985772 1.05917 1.06126 1.13266 1.05887 1.13455 1.06093 1.13229 1.20531 1.20745 1.27781 1.20492 1.27982 1.207 1.27758 1.34952 1.35154 1.42104 1.34921 1.42286 1.35112 1.4205 0 0.0149186 0 0.0223291 0 0.0366709 0.0143725 0.0478525 0.0214255 0.0359847 0.0695803 0.0838454 0.106668 0.0665937 0.123288 0.0819717 0.10343 0.149596 0.167681 0.197753 0.146073 0.2173 0.164858 0.194089 0.250948 0.271375 0.308264 0.247498 0.328026 0.268166 0.305284 0.369256 0.388728 0.432895 0.36641 0.451531 0.385989 0.430465 0.498797 0.516827 0.566744 0.496825 0.583619 0.514577 0.564994 0.635815 0.652135 0.70634 0.634307 0.721722 0.650378 0.705094 0.777836 0.792536 0.850145 0.77661 0.863889 0.791132 0.849217 0.922504 0.935739 0.995408 0.921842 1.00776 0.934913 0.994981 1.06816 1.08001 1.14102 1.06777 1.15205 1.07923 1.14057 1.2136 1.22414 1.28578 1.21299 1.29578 1.22335 1.28545 1.35706 1.36663 1.42819 1.35652 1.43723 1.36618 1.42759 0 0.0311713 0 0.0451359 0 0.0673496 0.0291706 0.0897758 0.0435327 0.0669797 0.103166 0.129066 0.145295 0.10259 0.173718 0.129446 0.142945 0.19109 0.222324 0.242848 0.189154 0.275059 0.220688 0.239106 0.298317 0.331988 0.355609 0.295141 0.389981 0.329299 0.35391 0.417061 0.452479 0.478542 0.413917 0.512522 0.449214 0.476231 0.54271 0.576122 0.608268 0.540453 0.640018 0.57383 0.606437 0.675677 0.706367 0.743999 0.673902 0.772817 0.704485 0.742462 0.8136 0.841064 0.883754 0.812161 0.909355 0.839562 0.882705 0.954526 0.978892 1.02533 0.953656 1.04801 0.978091 1.02493 1.09654 1.11816 1.16762 1.0959 1.18755 1.11751 1.16687 1.2388 1.25771 1.30995 1.23816 1.32729 1.25738 1.30922 1.37977 1.39653 1.44941 1.37942 1.4655 1.39654 1.44951 0 0.0377797 0 0.0191302 0 0.0124916 0 0.0754472 0.0497184 0.0482589 0.0317809 0.0335386 0.0174483 0.0564051 0.10978 0.0804134 0.0602788 0.149352 0.117053 0.111011 0.0792122 0.0951629 0.05402 0.109864 0.192208 0.15817 0.13623 0.242558 0.2068 0.186142 0.149923 0.185012 0.126073 0.197163 0.291847 0.259338 0.238335 0.346993 0.316455 0.282592 0.249944 0.296901 0.229607 0.308752 0.404339 0.37609 0.357669 0.465669 0.439414 0.397639 0.369428 0.422526 0.351563 0.434131 0.528647 0.504386 0.488681 0.594171 0.57201 0.524195 0.500138 0.557648 0.484744 0.568773 0.660814 0.640316 0.626983 0.728671 0.710118 0.657563 0.637238 0.698115 0.624329 0.707427 0.797535 0.780377 0.769486 0.867392 0.852026 0.795093 0.778113 0.842095 0.767428 0.849954 0.938044 0.923714 0.914767 1.00939 0.996306 0.936626 0.92246 0.988076 0.913429 0.995542 1.08083 1.0687 1.06105 1.15247 1.14134 1.08027 1.06813 1.1343 1.06053 1.14123 1.22365 1.21311 1.20667 1.29484 1.28492 1.22321 1.21277 1.27891 1.20623 1.28433 1.36581 1.35638 1.35063 1.43639 1.42755 1.3654 1.35605 1.42212 1.35034 1.42743 0 0.00665622 0 0.00820209 0 0.0220888 0.00784314 0.0229782 0.00793155 0.0172417 0.0495633 0.0507104 0.0843855 0.0397516 0.085903 0.0416787 0.0733877 0.126494 0.128094 0.175262 0.115924 0.17666 0.118717 0.165489 0.229263 0.230643 0.287834 0.220727 0.2892 0.22272 0.280571 0.349562 0.351053 0.414769 0.343342 0.416229 0.345051 0.409503 0.481863 0.483428 0.551212 0.477542 0.552735 0.479181 0.547851 0.621265 0.622884 0.6927 0.618255 0.694461 0.620013 0.690308 0.764889 0.766532 0.837927 0.762669 0.839654 0.764353 0.83595 0.911153 0.912949 0.984895 0.909661 0.986677 0.911464 0.983835 1.05814 1.06014 1.13165 1.05746 1.13354 1.05938 1.13141 1.20431 1.20631 1.27681 1.20393 1.2788 1.20582 1.27645 1.34872 1.35052 1.4201 1.34854 1.42177 1.3502 1.41971 0 0.0132055 0 0.0210549 0 0.03421 0.0154521 0.0479952 0.0270779 0.0305415 0.0621073 0.0786274 0.0979219 0.0556916 0.116426 0.0757964 0.0896663 0.140202 0.159946 0.188598 0.132089 0.209235 0.153298 0.18018 0.242353 0.263537 0.300335 0.234603 0.320433 0.256498 0.293491 0.361966 0.381615 0.426349 0.355595 0.445083 0.375843 0.420947 0.493195 0.511039 0.561859 0.488597 0.578703 0.506627 0.558265 0.631804 0.647901 0.702817 0.628511 0.718036 0.644769 0.700135 0.77469 0.78922 0.847241 0.772209 0.86101 0.786986 0.845147 0.920416 0.933497 0.993638 0.918727 1.00589 0.93175 0.992423 1.0668 1.0783 1.13974 1.06586 1.15049 1.07728 1.13916 1.21223 1.22247 1.28465 1.21155 1.2943 1.22191 1.28397 1.35594 1.36554 1.42695 1.35549 1.43624 1.36495 1.4266 0 0.0298851 0 0.042529 0 0.0679448 0.036466 0.0910972 0.0539526 0.069234 0.0998472 0.12671 0.14037 0.0997092 0.170484 0.128362 0.136303 0.184753 0.217511 0.236137 0.180027 0.269873 0.214243 0.228812 0.291263 0.325799 0.348434 0.284285 0.38394 0.320121 0.343465 0.410488 0.447063 0.472096 0.403712 0.506948 0.440152 0.466555 0.537004 0.570773 0.603293 0.53194 0.635373 0.565938 0.599399 0.671322 0.702076 0.740078 0.667715 0.769048 0.698668 0.737282 0.810149 0.837706 0.880598 0.807476 0.906455 0.835126 0.878278 0.952026 0.976602 1.02337 0.94993 1.0462 0.974605 1.02201 1.09478 1.11647 1.16592 1.0936 1.18616 1.11525 1.16513 1.23715 1.25643 1.30802 1.23634 1.32584 1.25547 1.30734 1.37866 1.39561 1.44898 1.37797 1.46517 1.39492 1.44838 
