# vtk DataFile Version 5.1
vtk output
ASCII

DATASET UNSTRUCTURED_GRID
POINTS 425 float
0 0 1.1
0.25 0 1.1
0.5 0 1.1
0.75 0 1.1
1 0 1.1
1.25 0 1.1
1.5 0 1.1
1.75 0 1.1
2 0 1.1
2.25 0 1.1
2.5 0 1.1
2.75 0 1.1
3 0 1.1
3.25 0 1.1
3.5 0 1.1
3.75 0 1.1
4 0 1.1
0 0.25 1.1
0.25 0.25 1.1
0.5 0.25 1.1
0.75 0.25 1.1
1 0.25 1.1
1.25 0.25 1.1
1.5 0.25 1.1
1.75 0.25 1.1
2 0.25 1.1
2.25 0.25 1.1
2.5 0.25 1.1
2.75 0.25 1.1
3 0.25 1.1
3.25 0.25 1.1
3.5 0.25 1.1
3.75 0.25 1.1
4 0.25 1.1
0 0.5 1.1
0.25 0.5 1.1
0.5 0.5 1.1
0.75 0.5 1.1
1 0.5 1.1
1.25 0.5 1.1
1.5 0.5 1.1
1.75 0.5 1.1
2 0.5 1.1
2.25 0.5 1.1
2.5 0.5 1.1
2.75 0.5 1.1
3 0.5 1.1
3.25 0.5 1.1
3.5 0.5 1.1
3.75 0.5 1.1
4 0.5 1.1
0 0.75 1.1
0.25 0.75 1.1
0.5 0.75 1.1
0.75 0.75 1.1
1 0.75 1.1
1.25 0.75 1.1
1.5 0.75 1.1
1.75 0.75 1.1
2 0.75 1.1
2.25 0.75 1.1
2.5 0.75 1.1
2.75 0.75 1.1
3 0.75 1.1
3.25 0.75 1.1
3.5 0.75 1.1
3.75 0.75 1.1
4 0.75 1.1
0 1 1.1
0.25 1 1.1
0.5 1 1.1
0.75 1 1.1
1 1 1.1
1.25 1 1.1
1.5 1 1.1
1.75 1 1.1
2 1 1.1
2.25 1 1.1
2.5 1 1.1
2.75 1 1.1
3 1 1.1
3.25 1 1.1
3.5 1 1.1
3.75 1 1.1
4 1 1.1
0 0 1.35
0.25 0 1.35
0.5 0 1.35
0.75 0 1.35
1 0 1.35
1.25 0 1.35
1.5 0 1.35
1.75 0 1.35
2 0 1.35
2.25 0 1.35
2.5 0 1.35
2.75 0 1.35
3 0 1.35
3.25 0 1.35
3.5 0 1.35
3.75 0 1.35
4 0 1.35
0 0.25 1.35
0.25 0.25 1.35
0.5 0.25 1.35
0.75 0.25 1.35
1 0.25 1.35
1.25 0.25 1.35
1.5 0.25 1.35
1.75 0.25 1.35
2 0.25 1.35
2.25 0.25 1.35
2.5 0.25 1.35
2.75 0.25 1.35
3 0.25 1.35
3.25 0.25 1.35
3.5 0.25 1.35
3.75 0.25 1.35
4 0.25 1.35
0 0.5 1.35
0.25 0.5 1.35
0.5 0.5 1.35
0.75 0.5 1.35
1 0.5 1.35
1.25 0.5 1.35
1.5 0.5 1.35
1.75 0.5 1.35
2 0.5 1.35
2.25 0.5 1.35
2.5 0.5 1.35
2.75 0.5 1.35
3 0.5 1.35
3.25 0.5 1.35
3.5 0.5 1.35
3.75 0.5 1.35
4 0.5 1.35
0 0.75 1.35
0.25 0.75 1.35
0.5 0.75 1.35
0.75 0.75 1.35
1 0.75 1.35
1.25 0.75 1.35
1.5 0.75 1.35
1.75 0.75 1.35
2 0.75 1.35
2.25 0.75 1.35
2.5 0.75 1.35
2.75 0.75 1.35
3 0.75 1.35
3.25 0.75 1.35
3.5 0.75 1.35
3.75 0.75 1.35
4 0.75 1.35
0 1 1.35
0.25 1 1.35
0.5 1 1.35
0.75 1 1.35
1 1 1.35
1.25 1 1.35
1.5 1 1.35
1.75 1 1.35
2 1 1.35
2.25 1 1.35
2.5 1 1.35
2.75 1 1.35
3 1 1.35
3.25 1 1.35
3.5 1 1.35
3.75 1 1.35
4 1 1.35
0 0 1.6
0.25 0 1.6
0.5 0 1.6
0.75 0 1.6
1 0 1.6
1.25 0 1.6
1.5 0 1.6
1.75 0 1.6
2 0 1.6
2.25 0 1.6
2.5 0 1.6
2.75 0 1.6
3 0 1.6
3.25 0 1.6
3.5 0 1.6
3.75 0 1.6
4 0 1.6
0 0.25 1.6
0.25 0.25 1.6
0.5 0.25 1.6
0.75 0.25 1.6
1 0.25 1.6
1.25 0.25 1.6
1.5 0.25 1.6
1.75 0.25 1.6
2 0.25 1.6
2.25 0.25 1.6
2.5 0.25 1.6
2.75 0.25 1.6
3 0.25 1.6
3.25 0.25 1.6
3.5 0.25 1.6
3.75 0.25 1.6
4 0.25 1.6
0 0.5 1.6
0.25 0.5 1.6
0.5 0.5 1.6
0.75 0.5 1.6
1 0.5 1.6
1.25 0.5 1.6
1.5 0.5 1.6
1.75 0.5 1.6
2 0.5 1.6
2.25 0.5 1.6
2.5 0.5 1.6
2.75 0.5 1.6
3 0.5 1.6
3.25 0.5 1.6
3.5 0.5 1.6
3.75 0.5 1.6
4 0.5 1.6
0 0.75 1.6
0.25 0.75 1.6
0.5 0.75 1.6
0.75 0.75 1.6
1 0.75 1.6
1.25 0.75 1.6
1.5 0.75 1.6
1.75 0.75 1.6
2 0.75 1.6
2.25 0.75 1.6
2.5 0.75 1.6
2.75 0.75 1.6
3 0.75 1.6
3.25 0.75 1.6
3.5 0.75 1.6
3.75 0.75 1.6
4 0.75 1.6
0 1 1.6
0.25 1 1.6
0.5 1 1.6
0.75 1 1.6
1 1 1.6
1.25 1 1.6
1.5 1 1.6
1.75 1 1.6
2 1 1.6
2.25 1 1.6
2.5 1 1.6
2.75 1 1.6
3 1 1.6
3.25 1 1.6
3.5 1 1.6
3.75 1 1.6
4 1 1.6
0 0 1.85
0.25 0 1.85
0.5 0 1.85
0.75 0 1.85
1 0 1.85
1.25 0 1.85
1.5 0 1.85
1.75 0 1.85
2 0 1.85
2.25 0 1.85
2.5 0 1.85
2.75 0 1.85
3 0 1.85
3.25 0 1.85
3.5 0 1.85
3.75 0 1.85
4 0 1.85
0 0.25 1.85
0.25 0.25 1.85
0.5 0.25 1.85
0.75 0.25 1.85
1 0.25 1.85
1.25 0.25 1.85
1.5 0.25 1.85
1.75 0.25 1.85
2 0.25 1.85
2.25 0.25 1.85
2.5 0.25 1.85
2.75 0.25 1.85
3 0.25 1.85
3.25 0.25 1.85
3.5 0.25 1.85
3.75 0.25 1.85
4 0.25 1.85
0 0.5 1.85
0.25 0.5 1.85
0.5 0.5 1.85
0.75 0.5 1.85
1 0.5 1.85
1.25 0.5 1.85
1.5 0.5 1.85
1.75 0.5 1.85
2 0.5 1.85
2.25 0.5 1.85
2.5 0.5 1.85
2.75 0.5 1.85
3 0.5 1.85
3.25 0.5 1.85
3.5 0.5 1.85
3.75 0.5 1.85
4 0.5 1.85
0 0.75 1.85
0.25 0.75 1.85
0.5 0.75 1.85
0.75 0.75 1.85
1 0.75 1.85
1.25 0.75 1.85
1.5 0.75 1.85
1.75 0.75 1.85
2 0.75 1.85
2.25 0.75 1.85
2.5 0.75 1.85
2.75 0.75 1.85
3 0.75 1.85
3.25 0.75 1.85
3.5 0.75 1.85
3.75 0.75 1.85
4 0.75 1.85
0 1 1.85
0.25 1 1.85
0.5 1 1.85
0.75 1 1.85
1 1 1.85
1.25 1 1.85
1.5 1 1.85
1.75 1 1.85
2 1 1.85
2.25 1 1.85
2.5 1 1.85
2.75 1 1.85
3 1 1.85
3.25 1 1.85
3.5 1 1.85
3.75 1 1.85
4 1 1.85
0 0 2.1
0.25 0 2.1
0.5 0 2.1
0.75 0 2.1
1 0 2.1
1.25 0 2.1
1.5 0 2.1
1.75 0 2.1
2 0 2.1
2.25 0 2.1
2.5 0 2.1
2.75 0 2.1
3 0 2.1
3.25 0 2.1
3.5 0 2.1
3.75 0 2.1
4 0 2.1
0 0.25 2.1
0.25 0.25 2.1
0.5 0.25 2.1
0.75 0.25 2.1
1 0.25 2.1
1.25 0.25 2.1
1.5 0.25 2.1
1.75 0.25 2.1
2 0.25 2.1
2.25 0.25 2.1
2.5 0.25 2.1
2.75 0.25 2.1
3 0.25 2.1
3.25 0.25 2.1
3.5 0.25 2.1
3.75 0.25 2.1
4 0.25 2.1
0 0.5 2.1
0.25 0.5 2.1
0.5 0.5 2.1
0.75 0.5 2.1
1 0.5 2.1
1.25 0.5 2.1
1.5 0.5 2.1
1.75 0.5 2.1
2 0.5 2.1
2.25 0.5 2.1
2.5 0.5 2.1
2.75 0.5 2.1
3 0.5 2.1
3.25 0.5 2.1
3.5 0.5 2.1
3.75 0.5 2.1
4 0.5 2.1
0 0.75 2.1
0.25 0.75 2.1
0.5 0.75 2.1
0.75 0.75 2.1
1 0.75 2.1
1.25 0.75 2.1
1.5 0.75 2.1
1.75 0.75 2.1
2 0.75 2.1
2.25 0.75 2.1
2.5 0.75 2.1
2.75 0.75 2.1
3 0.75 2.1
3.25 0.75 2.1
3.5 0.75 2.1
3.75 0.75 2.1
4 0.75 2.1
0 1 2.1
0.25 1 2.1
0.5 1 2.1
0.75 1 2.1
1 1 2.1
1.25 1 2.1
1.5 1 2.1
1.75 1 2.1
2 1 2.1
2.25 1 2.1
2.5 1 2.1
2.75 1 2.1
3 1 2.1
3.25 1 2.1
3.5 1 2.1
3.75 1 2.1
4 1 2.1

CELLS 1537 6144
OFFSETS vtktypeint64
[...]
POINT_DATA 425
SCALARS weights float 1
LOOKUP_TABLE default
3.90625 5.20833 5.20833 5.20833 5.20833 5.20833 5.20833 5.20833 5.20833 5.20833 5.20833 5.20833 5.20833 5.20833 5.20833 5.20833 1.30208 5.20833 7.8125 7.8125 7.8125 7.8125 7.8125 7.8125 7.8125 7.8125 7.8125 7.8125 7.8125 7.8125 7.8125 7.8125 7.8125 2.60417 5.20833 7.8125 7.8125 7.8125 7.8125 7.8125 7.8125 7.8125 7.8125 7.8125 7.8125 7.8125 7.8125 7.8125 7.8125 7.8125 2.60417 5.20833 7.8125 7.8125 7.8125 7.8125 7.8125 7.8125 7.8125 7.8125 7.8125 7.8125 7.8125 7.8125 7.8125 7.8125 7.8125 2.60417 1.30208 2.60417 2.60417 2.60417 2.60417 2.60417 2.60417 2.60417 2.60417 2.60417 2.60417 2.60417 2.60417 2.60417 2.60417 2.60417 1.30208 5.20833 7.8125 7.8125 7.8125 7.8125 7.8125 7.8125 7.8125 7.8125 7.8125 7.8125 7.8125 7.8125 7.8125 7.8125 7.8125 2.60417 7.8125 15.625 15.625 15.625 15.625 15.625 15.625 15.625 15.625 15.625 15.625 15.625 15.625 15.625 15.625 15.625 7.8125 7.8125 15.625 15.625 15.625 15.625 15.625 15.625 15.625 15.625 15.625 15.625 15.625 15.625 15.625 15.625 15.625 7.8125 7.8125 15.625 15.625 15.625 15.625 15.625 15.625 15.625 15.625 15.625 15.625 15.625 15.625 15.625 15.625 15.625 7.8125 2.60417 7.8125 7.8125 7.8125 7.8125 7.8125 7.8125 7.8125 7.8125 7.8125 7.8125 7.8125 7.8125 7.8125 7.8125 7.8125 5.20833 5.20833 7.8125 7.8125 7.8125 7.8125 7.8125 7.8125 7.8125 7.8125 7.8125 7.8125 7.8125 7.8125 7.8125 7.8125 7.8125 2.60417 7.8125 15.625 15.625 15.625 15.625 15.625 15.625 15.625 15.625 15.625 15.625 15.625 15.625 15.625 15.625 15.625 7.8125 7.8125 15.625 15.625 15.625 15.625 15.625 15.625 15.625 15.625 15.625 15.625 15.625 15.625 15.625 15.625 15.625 7.8125 7.8125 15.625 15.625 15.625 15.625 15.625 15.625 15.625 15.625 15.625 15.625 15.625 15.625 15.625 15.625 15.625 7.8125 2.60417 7.8125 7.8125 7.8125 7.8125 7.8125 7.8125 7.8125 7.8125 7.8125 7.8125 7.8125 7.8125 7.8125 7.8125 7.8125 5.20833 5.20833 7.8125 7.8125 7.8125 7.8125 7.8125 7.8125 7.8125 7.8125 7.8125 7.8125 7.8125 7.8125 7.8125 7.8125 7.8125 2.60417 7.8125 15.625 15.625 15.625 15.625 15.625 15.625 15.625 15.625 15.625 15.625 15.625 15.625 15.625 15.625 15.625 7.8125 7.8125 15.625 15.625 15.625 15.625 15.625 15.625 15.625 15.625 15.625 15.625 15.625 15.625 15.625 15.625 15.625 7.8125 7.8125 15.625 15.625 15.625 15.625 15.625 15.625 15.625 15.625 15.625 15.625 15.625 15.625 15.625 15.625 15.625 7.8125 2.60417 7.8125 7.8125 7.8125 7.8125 7.8125 7.8125 7.8125 7.8125 7.8125 7.8125 7.8125 7.8125 7.8125 7.8125 7.8125 5.20833 1.30208 2.60417 2.60417 2.60417 2.60417 2.60417 2.60417 2.60417 2.60417 2.60417 2.60417 2.60417 2.60417 2.60417 2.60417 2.60417 1.30208 2.60417 7.8125 7.8125 7.8125 7.8125 7.8125 7.8125 7.8125 7.8125 7.8125 7.8125 7.8125 7.8125 7.8125 7.8125 7.8125 5.20833 2.60417 7.8125 7.8125 7.8125 7.8125 7.8125 7.8125 7.8125 7.8125 7.8125 7.8125 7.8125 7.8125 7.8125 7.8125 7.8125 5.20833 2.60417 7.8125 7.8125 7.8125 7.8125 7.8125 7.8125 7.8125 7.8125 7.8125 7.8125 7.8125 7.8125 7.8125 7.8125 7.8125 5.20833 1.30208 5.20833 5.20833 5.20833 5.20833 5.20833 5.20833 5.20833 5.20833 5.20833 5.20833 5.20833 5.20833 5.20833 5.20833 5.20833 3.90625 
VECTORS u float
0 0 0  -0.00244208 -0.00381005 -0.00116265  -0.00444359 -0.00856697 -0.000762701  -0.00620741 -0.0144525 0.000321031  -0.00777429 -0.0213223 0.0018754  -0.00916445 -0.028995 0.00379872  -0.0103853 -0.0373114 0.00601923  -0.0114501 -0.0461282 0.00847471  -0.0123649 -0.0553141 0.0111206  -0.0131419 -0.0647497 0.0139163  -0.0137897 -0.0743303 0.016818  -0.0143204 -0.0839667 0.0197959  -0.0147493 -0.0935822 0.0228227  -0.0150895 -0.103112 0.0258721  -0.0153594 -0.112508 0.0289291  -0.0155783 -0.121739 0.0319916  -0.0157645 -0.13077 0.0350672  0 0 0  -6.1363e-05 -0.0025972 -0.000656009  -0.000761092 -0.0073515 0.000216603  -0.00145817 -0.0133507 0.00135493  -0.00211757 -0.0203611 0.00284898  -0.00273776 -0.0281781 0.00468659  -0.00331771 -0.0366362 0.00680876  -0.00385857 -0.045586 0.00917399  -0.0043577 -0.0548953 0.0117332  -0.00481582 -0.0644432 0.0144531  -0.00523424 -0.0741274 0.0172839  -0.00561023 -0.0838558 0.0202003  -0.00594378 -0.0935494 0.0231725  -0.00623727 -0.103146 0.0261848  -0.00649023 -0.112593 0.0292162  -0.00670934 -0.121858 0.0322658  -0.0068984 -0.130906 0.0353322  0 0 0  0.00128472 -0.00253859 0.000784397  0.00224262 -0.00682917 0.00117016  0.00272661 -0.0128007 0.00240588  0.00305057 -0.0198588 0.00385761  0.00326145 -0.0277434 0.00560534  0.00337708 -0.0362743 0.00762916  0.00341082 -0.0452945 0.00989485  0.00337362 -0.0546713 0.012363  0.00327659 -0.0642832 0.0149966  0.0031302 -0.0740261 0.0177555  0.00294805 -0.0838088 0.0206065  0.00274348 -0.0935525 0.0235237  0.00252581 -0.103196 0.026491  0.00231075 -0.112683 0.0294917  0.00210309 -0.121982 0.0325103  0.00191927 -0.131049 0.0355484  0 0 0  0.00244948 -0.00308233 0.00190341  0.00475723 -0.00722462 0.00263762  0.0066613 -0.0129001 0.0034672  0.00806868 -0.0198929 0.00482655  0.00917864 -0.0277569 0.00647759  0.0100415 -0.0362812 0.00840521  0.0106846 -0.0453045 0.010579  0.0111389 -0.0546848 0.0129611  0.011425 -0.0643041 0.0155165  0.0115678 -0.0740559 0.0182078  0.0115905 -0.0838523 0.020999  0.0115221 -0.0936121 0.0238649  0.011384 -0.103276 0.0267916  0.0112045 -0.11279 0.0297529  0.0110068 -0.122115 0.0327415  0.0108161 -0.131214 0.0357388  0 0 0  0.00322321 -0.00419599 0.0029546  0.00688815 -0.00844955 0.00396943  0.0102738 -0.0139021 0.00468719  0.0130813 -0.0205903 0.00571835  0.0152433 -0.0283119 0.00724268  0.0169504 -0.0367312 0.0090766  0.0182688 -0.0456673 0.0111693  0.0192494 -0.0549767 0.0134807  0.0199385 -0.0645344 0.0159748  0.0203738 -0.0742382 0.0186099  0.0205975 -0.0839981 0.0213529  0.0206521 -0.0937353 0.0241805  0.0205801 -0.103387 0.0270752  0.0204177 -0.112906 0.0300102  0.0202072 -0.122251 0.0329773  0.019989 -0.131384 0.0359509  0 0 0  -0.00278765 -0.00439799 -0.000692844  -0.00533217 -0.00944498 -0.000401974  -0.00755435 -0.015364 0.000587225  -0.00950718 -0.0221705 0.0020709  -0.0112174 -0.029756 0.00394392  -0.0127065 -0.0379801 0.00612068  -0.0139866 -0.0467057 0.00854266  -0.0150772 -0.0558072 0.0111561  -0.0159862 -0.0651654 0.0139297  -0.0167336 -0.0746789 0.0168114  -0.0173337 -0.0842569 0.0197753  -0.0178094 -0.0938242 0.0227911  -0.0181746 -0.103316 0.0258367  -0.0184584 -0.112688 0.0288918  -0.0186834 -0.121907 0.0319558  -0.0188768 -0.130954 0.0350301  0 0 0  -7.26283e-05 -0.00267276 -0.00027597  -0.00158587 -0.00805154 0.00020349  -0.00278455 -0.0141408 0.00124872  -0.0038349 -0.0211061 0.0027144  -0.0047735 -0.0288499 0.00454843  -0.00561738 -0.037228 0.00667393  -0.00637043 -0.0460992 0.00904882  -0.00704134 -0.0553346 0.011616  -0.00763154 -0.0648177 0.0143464  -0.00814724 -0.0744436 0.0171893  -0.00859141 -0.0841216 0.020118  -0.00896931 -0.0937725 0.0231026  -0.00928974 -0.103339 0.026126  -0.00955701 -0.112765 0.0291668  -0.00978422 -0.122023 0.0322238  -0.00998211 -0.131091 0.0352911  0 0 0  0.000486612 -0.00301328 0.000141621  0.00115556 -0.00748849 0.000614524  0.00123543 -0.0135324 0.00183499  0.00123084 -0.0205446 0.00332189  0.00116909 -0.0283611 0.00512528  0.00105762 -0.0368175 0.0072099  0.000904083 -0.0457675 0.00953555  0.000715256 -0.0550767 0.0120592  0.000500917 -0.0646289 0.0147461  0.000268459 -0.074318 0.0175552  2.40803e-05 -0.0840561 0.020449  -0.000222206 -0.0937617 0.023404  -0.000463247 -0.103376 0.0264052  -0.000691652 -0.112844 0.0294307  -0.000902891 -0.122133 0.0324707  -0.00109625 -0.131221 0.0355153  0 0 0  0.000938684 -0.00385302 0.0004071  0.00318819 -0.00801945 0.00142133  0.00491655 -0.0136163 0.00241041  0.00608838 -0.0205374 0.00388539  0.00698864 -0.0283287 0.00565755  0.00766993 -0.0367826 0.00770295  0.00816166 -0.0457402 0.0099895  0.00849056 -0.0550593 0.0124736  0.00867844 -0.0646247 0.0151229  0.00874782 -0.0743296 0.0178988  0.00872016 -0.0840843 0.0207652  0.00861859 -0.0938098 0.0236944  0.00846457 -0.103446 0.0266765  0.00827837 -0.112941 0.02968  0.00808406 -0.122255 0.0327028  0.00789261 -0.131368 0.0357178  0 0 0  0.00114712 -0.00520688 0.000645638  0.00495994 -0.0093115 0.00214064  0.00825447 -0.0146431 0.00311804  0.0109262 -0.0212002 0.00437164  0.0129312 -0.0288371 0.00609267  0.0144923 -0.0371873 0.00810611  0.0156846 -0.0460641 0.0103632  0.0165586 -0.0553203 0.0128211  0.0171647 -0.064832 0.0154473  0.0175402 -0.0744952 0.0182012  0.0177262 -0.084218 0.0210491  0.0177584 -0.0939245 0.0239646  0.017678 -0.103553 0.0269318  0.0175183 -0.113052 0.0299249  0.0173178 -0.122385 0.0329361  0.0171108 -0.131524 0.0359395  0 0 0  -0.00316404 -0.0049215 -6.09159e-05  -0.00613523 -0.0100165 0.000232339  -0.00878137 -0.0159241 0.00110841  -0.0111046 -0.0226967 0.00248826  -0.0131339 -0.0302396 0.00427186  -0.0148902 -0.0384177 0.00637388  -0.0163938 -0.0470954 0.00872874  -0.0176619 -0.05615 0.0112883  -0.0187159 -0.0654661 0.0140116  -0.0195692 -0.0749385 0.0168569  -0.0202518 -0.0844838 0.0197889  -0.0207827 -0.0940233 0.0227834  -0.0211887 -0.103497 0.0258114  -0.0214927 -0.112854 0.0288621  -0.0217295 -0.12207 0.0319269  -0.0219305 -0.131131 0.0350031  0 0 0  -0.000217885 -0.00295302 0.000105143  -0.00221786 -0.00840034 0.000517845  -0.00391614 -0.0145391 0.00143588  -0.00537664 -0.0215016 0.00282335  -0.00665629 -0.0292232 0.0046066  -0.0077796 -0.0375712 0.00670087  -0.00876439 -0.0464094 0.00904906  -0.00961864 -0.055612 0.0116  -0.0103574 -0.0650654 0.0143138  -0.0109825 -0.0746623 0.017149  -0.0115085 -0.0843164 0.0200716  -0.0119441 -0.0939496 0.023054  -0.0123034 -0.103502 0.0260775  -0.0125937 -0.112923 0.0291222  -0.0128348 -0.122183 0.0321842  -0.0130415 -0.131268 0.0352563  0 0 0  0.000290781 -0.0032053 0.000103474  0.000645101 -0.00748387 0.00062871  9.90033e-05 -0.0137571 0.00161386  -0.000332415 -0.0208131 0.00304854  -0.000728965 -0.0286293 0.00485325  -0.00111187 -0.037073 0.00695932  -0.00148821 -0.0460047 0.00931072  -0.00185394 -0.0552945 0.0118631  -0.00221014 -0.0648282 0.0145752  -0.0025506 -0.0745015 0.0174099  -0.00287271 -0.0842242 0.0203286  -0.00317287 -0.0939191 0.0233066  -0.00344849 -0.103524 0.026329  -0.00369978 -0.112992 0.0293703  -0.00392365 -0.122287 0.0324237  -0.00412655 -0.131397 0.0354769  0 0 0  0.00075832 -0.00388879 7.06911e-05  0.00222045 -0.0081988 0.000601172  0.00362641 -0.0137629 0.00166512  0.00442946 -0.0207217 0.00318062  0.00502658 -0.0285215 0.00502205  0.00545967 -0.0369741 0.00715065  0.00574815 -0.0459229 0.00951946  0.0059123 -0.0552344 0.0120811  0.00597 -0.0647896 0.0148002  0.00594068 -0.0744861 0.0176406  0.00584269 -0.0842319 0.0205647  0.00569081 -0.093953 0.0235429  0.0055058 -0.103585 0.026566  0.00530291 -0.11308 0.0296046  0.00509834 -0.122401 0.0326508  0.00490379 -0.131531 0.0356852  0 0 0  0.00111192 -0.00503284 7.92742e-05  0.00358605 -0.0097546 0.000469327  0.00675464 -0.0148684 0.00175726  0.00920379 -0.0213455 0.00321865  0.010942 -0.0289779 0.00509763  0.0122715 -0.0373287 0.00726259  0.0132688 -0.0462033 0.00965953  0.0139847 -0.0554581 0.0122461  0.0144627 -0.0649673 0.0149853  0.0147414 -0.0746286 0.0178398  0.0148566 -0.0843494 0.0207753  0.0148418 -0.0940549 0.0237653  0.0147319 -0.103683 0.026793  0.014559 -0.113183 0.0298361  0.0143533 -0.122522 0.0328819  0.0141487 -0.131675 0.0359117  0 0 0  -0.00346063 -0.00511249 0.000769258  -0.00682378 -0.0102778 0.00113547  -0.0098986 -0.0161548 0.0019002  -0.0126245 -0.0228942 0.00313938  -0.0149997 -0.0304262 0.00479829  -0.0170491 -0.0385992 0.00678885  -0.0187931 -0.0472721 0.00904667  -0.0202571 -0.0563225 0.0115201  -0.0214612 -0.0656321 0.0141739  -0.0224345 -0.0751004 0.0169557  -0.0232012 -0.0846393 0.0198406  -0.0237927 -0.0941748 0.0227968  -0.0242369 -0.103645 0.0258007  -0.0245643 -0.113002 0.0288376  -0.0248086 -0.122218 0.0319029  -0.0250084 -0.131285 0.0349903  0 0 0  -0.000270948 -0.00291021 0.000690579  -0.00276032 -0.00848413 0.00108659  -0.00493413 -0.0146208 0.00189829  -0.00682598 -0.0215725 0.00317276  -0.00847006 -0.0293019 0.00486839  -0.0098989 -0.0376611 0.00689209  -0.0111334 -0.0465094 0.00918305  -0.0121908 -0.0557211 0.0116851  -0.0130863 -0.0651806 0.0143623  -0.0138357 -0.074784 0.017163  -0.0144486 -0.0844394 0.0200651  -0.0149484 -0.0940765 0.0230294  -0.0153477 -0.103632 0.0260444  -0.015666 -0.113061 0.0290831  -0.015919 -0.122328 0.0321493  -0.0161326 -0.131428 0.0352281  0 0 0  0.000153989 -0.00318196 0.000215054  0.000221848 -0.00734913 0.000861406  -0.00086695 -0.0136562 0.00169265  -0.00176799 -0.0207462 0.00302637  -0.00254118 -0.0285979 0.00478649  -0.00323081 -0.0370721 0.00687301  -0.00385356 -0.0460284 0.00921905  -0.00441837 -0.0553412 0.0117686  -0.00492811 -0.0648932 0.0144845  -0.00538921 -0.0745827 0.0173218  -0.00579643 -0.084317 0.0202485  -0.00615692 -0.0940225 0.0232347  -0.00647259 -0.103638 0.026266  -0.0067482 -0.113117 0.029317  -0.00698757 -0.122426 0.03238  -0.00720072 -0.131555 0.0354418  0 0 0  0.000577956 -0.00374359 -0.000156999  0.00167727 -0.00797248 0.000306726  0.00268567 -0.0134097 0.0013715  0.00295067 -0.0205051 0.00276339  0.00316703 -0.0283799 0.00460303  0.00330412 -0.0368842 0.00676882  0.00335765 -0.0458747 0.00918663  0.00333333 -0.0552233 0.0117954  0.00324702 -0.0648093 0.0145617  0.00310564 -0.0745311 0.0174441  0.00292587 -0.0843002 0.0204053  0.00271988 -0.0940385 0.0234191  0.0024991 -0.103687 0.0264713  0.00227594 -0.113195 0.0295367  0.0020566 -0.122533 0.0325994  0.00185204 -0.131684 0.0356458  0 0 0  0.00101972 -0.00472814 -0.000451088  0.00317794 -0.00930232 -0.000188351  0.00560743 -0.0146025 0.00079596  0.00771272 -0.0210447 0.00237143  0.0090884 -0.0287511 0.00433326  0.0101237 -0.0371671 0.00659847  0.0108852 -0.0460973 0.00909877  0.0114131 -0.0554002 0.0117824  0.0117443 -0.0649526 0.0146095  0.0119109 -0.0746475 0.0175415  0.0119436 -0.0843989 0.0205454  0.0118725 -0.094128 0.0235943  0.0117252 -0.103776 0.0266687  0.0115306 -0.113295 0.0297502  0.0113139 -0.122649 0.0328246  0.0111027 -0.13182 0.0358721  0 0 0  -0.00339384 -0.00502431 0.00172544  -0.00710598 -0.0101831 0.00229955  -0.0106807 -0.0160567 0.00298572  -0.0139145 -0.0227966 0.0040555  -0.0167383 -0.0303396 0.00553918  -0.0191562 -0.0385418 0.00737643  -0.0211995 -0.0472503 0.00949931  -0.0229003 -0.0563324 0.0118563  -0.0242896 -0.0656714 0.0144093  -0.0253997 -0.0751651 0.0171094  -0.0262678 -0.0847243 0.0199254  -0.026926 -0.0942761 0.022831  -0.027411 -0.103758 0.0258005  -0.027761 -0.113124 0.0288165  -0.0280137 -0.122344 0.0318756  -0.0282083 -0.13142 0.0349748  0 0 0  -9.08673e-05 -0.00255261 0.00140977  -0.00301608 -0.00818039 0.00191164  -0.00568908 -0.0143318 0.00267816  -0.00808716 -0.0213033 0.00382233  -0.0101805 -0.0290662 0.00537968  -0.0119781 -0.0374773 0.00728703  -0.0135123 -0.0463827 0.00947785  -0.0148064 -0.0556456 0.0118964  -0.0158873 -0.0651519 0.0145013  -0.0167723 -0.0747949 0.017247  -0.0174882 -0.0844852 0.0200999  -0.0180545 -0.0941498 0.0230312  -0.0184979 -0.103728 0.026022  -0.0188401 -0.113172 0.0290496  -0.0191047 -0.122451 0.0321133  -0.0193186 -0.131565 0.035202  0 0 0  6.83963e-05 -0.00290182 0.000450134  5.00083e-05 -0.00671652 0.00146985  -0.00168127 -0.0131792 0.00211  -0.00311732 -0.0203431 0.00331426  -0.00433695 -0.0282562 0.00497413  -0.0053817 -0.0368023 0.0069921  -0.0062865 -0.0458317 0.00928712  -0.00707114 -0.0552094 0.0117977  -0.00775051 -0.0648192 0.0144825  -0.0083344 -0.0745586 0.0172997  -0.00883365 -0.0843358 0.0202079  -0.00925159 -0.0940744 0.0231872  -0.00960517 -0.103718 0.0262136  -0.00990009 -0.113217 0.0292668  -0.0101507 -0.122543 0.0323341  -0.0103667 -0.131692 0.0354071  0 0 0  0.000311852 -0.00338137 -0.000268459  0.00107574 -0.00743926 0.000238895  0.00175655 -0.0127357 0.00140548  0.00144958 -0.019981 0.00264382  0.00123012 -0.0279555 0.00441909  0.00103879 -0.0365528 0.00657201  0.000839353 -0.0456297 0.00899577  0.000623465 -0.055052 0.0116208  0.000390768 -0.0647036 0.0144031  0.000146389 -0.0744822 0.0173066  -0.000108242 -0.0842989 0.0202839  -0.000358582 -0.0940757 0.0233178  -0.000604391 -0.103754 0.0263882  -0.00083971 -0.113287 0.0294704  -0.00106192 -0.122642 0.0325489  -0.00126958 -0.131816 0.0356069  0 0 0  0.000733286 -0.00415891 -0.00086689  0.00245208 -0.0086202 -0.000699759  0.00443715 -0.0138926 0.000295639  0.00615442 -0.0203377 0.00193024  0.00705338 -0.0282274 0.00382209  0.00776899 -0.0367683 0.00611949  0.00829661 -0.0458018 0.00867915  0.00865054 -0.0551913 0.0114279  0.00885129 -0.0648194 0.0143142  0.0089283 -0.0745795 0.0173035  0.00889969 -0.0843835 0.0203562  0.00879216 -0.0941581 0.0234475  0.00862861 -0.10384 0.0265589  0.00842953 -0.113384 0.0296705  0.00821638 -0.122754 0.0327704  0.00800419 -0.13195 0.0358317  
SCALARS smooth_stress float 1
LOOKUP_TABLE default