# vtk DataFile Version 5.1
vtk output
ASCII

DATASET UNSTRUCTURED_GRID
POINTS 2673 float
0 0 2.2
0.25 0 2.2
0.5 0 2.2
0.75 0 2.2
1 0 2.2
1.25 0 2.2
1.5 0 2.2
1.75 0 2.2
2 0 2.2
2.25 0 2.2
2.5 0 2.2
2.75 0 2.2
3 0 2.2
3.25 0 2.2
3.5 0 2.2
3.75 0 2.2
4 0 2.2
0 0.25 2.2
0.25 0.25 2.2
0.5 0.25 2.2
0.75 0.25 2.2
1 0.25 2.2
1.25 0.25 2.2
1.5 0.25 2.2
1.75 0.25 2.2
2 0.25 2.2
2.25 0.25 2.2
2.5 0.25 2.2
2.75 0.25 2.2
3 0.25 2.2
3.25 0.25 2.2
3.5 0.25 2.2
3.75 0.25 2.2
4 0.25 2.2
0 0.5 2.2
0.25 0.5 2.2
0.5 0.5 2.2
0.75 0.5 2.2
1 0.5 2.2
1.25 0.5 2.2
1.5 0.5 2.2
1.75 0.5 2.2
2 0.5 2.2
2.25 0.5 2.2
2.5 0.5 2.2
2.75 0.5 2.2
3 0.5 2.2
3.25 0.5 2.2
3.5 0.5 2.2
3.75 0.5 2.2
4 0.5 2.2
0 0.75 2.2
0.25 0.75 2.2
0.5 0.75 2.2
0.75 0.75 2.2
1 0.75 2.2
1.25 0.75 2.2
1.5 0.75 2.2
1.75 0.75 2.2
2 0.75 2.2
2.25 0.75 2.2
2.5 0.75 2.2
2.75 0.75 2.2
3 0.75 2.2
3.25 0.75 2.2
3.5 0.75 2.2
3.75 0.75 2.2
4 0.75 2.2
0 1 2.2
0.25 1 2.2
0.5 1 2.2
0.75 1 2.2
1 1 2.2
1.25 1 2.2
1.5 1 2.2
1.75 1 2.2
2 1 2.2
2.25 1 2.2
2.5 1 2.2
2.75 1 2.2
3 1 2.2
3.25 1 2.2
3.5 1 2.2
3.75 1 2.2
4 1 2.2
0 0 2.45
0.25 0 2.45
0.5 0 2.45
0.75 0 2.45
1 0 2.45
1.25 0 2.45
1.5 0 2.45
1.75 0 2.45
2 0 2.45
2.25 0 2.45
2.5 0 2.45
2.75 0 2.45
3 0 2.45
3.25 0 2.45
3.5 0 2.45
3.75 0 2.45
4 0 2.45
0 0.25 2.45
0.25 0.25 2.45
0.5 0.25 2.45
0.75 0.25 2.45
1 0.25 2.45
1.25 0.25 2.45
1.5 0.25 2.45
1.75 0.25 2.45
2 0.25 2.45
2.25 0.25 2.45
2.5 0.25 2.45
2.75 0.25 2.45
3 0.25 2.45
3.25 0.25 2.45
3.5 0.25 2.45
3.75 0.25 2.45
4 0.25 2.45
0 0.5 2.45
0.25 0.5 2.45
0.5 0.5 2.45
0.75 0.5 2.45
1 0.5 2.45
1.25 0.5 2.45
1.5 0.5 2.45
1.75 0.5 2.45
2 0.5 2.45
2.25 0.5 2.45
2.5 0.5 2.45
2.75 0.5 2.45
3 0.5 2.45
3.25 0.5 2.45
3.5 0.5 2.45
3.75 0.5 2.45
4 0.5 2.45
0 0.75 2.45
0.25 0.75 2.45
0.5 0.75 2.45
0.75 0.75 2.45
1 0.75 2.45
1.25 0.75 2.45
1.5 0.75 2.45
1.75 0.75 2.45
2 0.75 2.45
2.25 0.75 2.45
2.5 0.75 2.45
2.75 0.75 2.45
3 0.75 2.45
3.25 0.75 2.45
3.5 0.75 2.45
3.75 0.75 2.45
4 0.75 2.45
0 1 2.45
0.25 1 2.45
0.5 1 2.45
0.75 1 2.45
1 1 2.45
1.25 1 2.45
1.5 1 2.45
1.75 1 2.45
2 1 2.45
2.25 1 2.45
2.5 1 2.45
2.75 1 2.45
3 1 2.45
3.25 1 2.45
3.5 1 2.45
3.75 1 2.45
4 1 2.45
0 0 2.7
0.25 0 2.7
0.5 0 2.7
0.75 0 2.7
1 0 2.7
1.25 0 2.7
1.5 0 2.7
1.75 0 2.7
2 0 2.7
2.25 0 2.7
2.5 0 2.7
2.75 0 2.7
3 0 2.7
3.25 0 2.7
3.5 0 2.7
3.75 0 2.7
4 0 2.7
0 0.25 2.7
0.25 0.25 2.7
0.5 0.25 2.7
0.75 0.25 2.7
1 0.25 2.7
1.25 0.25 2.7
1.5 0.25 2.7
1.75 0.25 2.7
2 0.25 2.7
2.25 0.25 2.7
2.5 0.25 2.7
2.75 0.25 2.7
3 0.25 2.7
3.25 0.25 2.7
3.5 0.25 2.7
3.75 0.25 2.7
4 0.25 2.7
0 0.5 2.7
0.25 0.5 2.7
0.5 0.5 2.7
0.75 0.5 2.7
1 0.5 2.7
1.25 0.5 2.7
1.5 0.5 2.7
1.75 0.5 2.7
2 0.5 2.7
2.25 0.5 2.7
2.5 0.5 2.7
2.75 0.5 2.7
3 0.5 2.7
3.25 0.5 2.7
3.5 0.5 2.7
3.75 0.5 2.7
4 0.5 2.7
0 0.75 2.7
0.25 0.75 2.7
0.5 0.75 2.7
0.75 0.75 2.7
1 0.75 2.7
1.25 0.75 2.7
1.5 0.75 2.7
1.75 0.75 2.7
2 0.75 2.7
2.25 0.75 2.7
2.5 0.75 2.7
2.75 0.75 2.7
3 0.75 2.7
3.25 0.75 2.7
3.5 0.75 2.7
3.75 0.75 2.7
4 0.75 2.7
0 1 2.7
0.25 1 2.7
0.5 1 2.7
0.75 1 2.7
1 1 2.7
1.25 1 2.7
1.5 1 2.7
1.75 1 2.7
2 1 2.7
2.25 1 2.7
2.5 1 2.7
2.75 1 2.7
3 1 2.7
3.25 1 2.7
3.5 1 2.7
3.75 1 2.7
4 1 2.7
0 0 2.95
0.25 0 2.95
0.5 0 2.95
0.75 0 2.95
1 0 2.95
1.25 0 2.95
1.5 0 2.95
1.75 0 2.95
2 0 2.95
2.25 0 2.95
2.5 0 2.95
2.75 0 2.95
3 0 2.95
3.25 0 2.95
3.5 0 2.95
3.75 0 2.95
4 0 2.95
0 0.25 2.95
0.25 0.25 2.95
0.5 0.25 2.95
0.75 0.25 2.95
1 0.25 2.95
1.25 0.25 2.95
1.5 0.25 2.95
1.75 0.25 2.95
2 0.25 2.95
2.25 0.25 2.95
2.5 0.25 2.95
2.75 0.25 2.95
3 0.25 2.95
3.25 0.25 2.95
3.5 0.25 2.95
3.75 0.25 2.95
4 0.25 2.95
0 0.5 2.95
0.25 0.5 2.95
0.5 0.5 2.95
0.75 0.5 2.95
1 0.5 2.95
1.25 0.5 2.95
1.5 0.5 2.95
1.75 0.5 2.95
2 0.5 2.95
2.25 0.5 2.95
2.5 0.5 2.95
2.75 0.5 2.95
3 0.5 2.95
3.25 0.5 2.95
3.5 0.5 2.95
3.75 0.5 2.95
4 0.5 2.95
0 0.75 2.95
0.25 0.75 2.95
0.5 0.75 2.95
0.75 0.75 2.95
1 0.75 2.95
1.25 0.75 2.95
1.5 0.75 2.95
1.75 0.75 2.95
2 0.75 2.95
2.25 0.75 2.95
2.5 0.75 2.95
2.75 0.75 2.95
3 0.75 2.95
3.25 0.75 2.95
3.5 0.75 2.95
3.75 0.75 2.95
4 0.75 2.95
0 1 2.95
0.25 1 2.95
0.5 1 2.95
0.75 1 2.95
1 1 2.95
1.25 1 2.95
1.5 1 2.95
1.75 1 2.95
2 1 2.95
2.25 1 2.95
2.5 1 2.95
2.75 1 2.95
3 1 2.95
3.25 1 2.95
3.5 1 2.95
3.75 1 2.95
4 1 2.95
0 0 3.2
0.25 0 3.2
0.5 0 3.2
0.75 0 3.2
1 0 3.2
1.25 0 3.2
1.5 0 3.2
1.75 0 3.2
2 0 3.2
2.25 0 3.2
2.5 0 3.2
2.75 0 3.2
3 0 3.2
3.25 0 3.2
3.5 0 3.2
3.75 0 3.2
4 0 3.2
0 0.25 3.2
0.25 0.25 3.2
0.5 0.25 3.2
0.75 0.25 3.2
1 0.25 3.2
1.25 0.25 3.2
1.5 0.25 3.2
1.75 0.25 3.2
2 0.25 3.2
2.25 0.25 3.2
2.5 0.25 3.2
2.75 0.25 3.2
3 0.25 3.2
3.25 0.25 3.2
3.5 0.25 3.2
3.75 0.25 3.2
4 0.25 3.2
0 0.5 3.2
0.25 0.5 3.2
0.5 0.5 3.2
0.75 0.5 3.2
1 0.5 3.2
1.25 0.5 3.2
1.5 0.5 3.2
1.75 0.5 3.2
2 0.5 3.2
2.25 0.5 3.2
2.5 0.5 3.2
2.75 0.5 3.2
3 0.5 3.2
3.25 0.5 3.2
3.5 0.5 3.2
3.75 0.5 3.2
4 0.5 3.2
0 0.75 3.2
0.25 0.75 3.2
0.5 0.75 3.2
0.75 0.75 3.2
1 0.75 3.2
1.25 0.75 3.2
1.5 0.75 3.2
1.75 0.75 3.2
2 0.75 3.2
2.25 0.75 3.2
2.5 0.75 3.2
2.75 0.75 3.2
3 0.75 3.2
3.25 0.75 3.2
3.5 0.75 3.2
3.75 0.75 3.2
4 0.75 3.2
0 1 3.2
0.25 1 3.2
0.5 1 3.2
0.75 1 3.2
1 1 3.2
1.25 1 3.2
1.5 1 3.2
1.75 1 3.2
2 1 3.2
2.25 1 3.2
2.5 1 3.2
2.75 1 3.2
3 1 3.2
3.25 1 3.2
3.5 1 3.2
3.75 1 3.2
4 1 3.2
0.125 0 2.2
0.25 0 2.325
0.125 0 2.45
0 0 2.325
0 0.125 2.2
0.25 0.125 2.2
0.25 0.125 2.45
0 0.125 2.45
0.125 0.25 2.2
0.25 0.25 2.325
0.125 0.25 2.45
0 0.25 2.325
0.125 0 2.325
0.125 0.125 2.2
0.25 0.125 2.325
0.125 0.125 2.45
0 0.125 2.325
0.125 0.25 2.325
0.125 0.125 2.325
0.375 0 2.2
0.5 0 2.325
0.375 0 2.45
0.5 0.125 2.2
0.5 0.125 2.45
0.375 0.25 2.2
0.5 0.25 2.325
0.375 0.25 2.45
0.375 0 2.325
0.375 0.125 2.2
0.5 0.125 2.325
0.375 0.125 2.45
0.375 0.25 2.325
0.375 0.125 2.325
0.625 0 2.2
0.75 0 2.325
0.625 0 2.45
0.75 0.125 2.2
0.75 0.125 2.45
0.625 0.25 2.2
0.75 0.25 2.325
0.625 0.25 2.45
0.625 0 2.325
0.625 0.125 2.2
0.75 0.125 2.325
0.625 0.125 2.45
0.625 0.25 2.325
0.625 0.125 2.325
0.875 0 2.2
1 0 2.325
0.875 0 2.45
1 0.125 2.2
1 0.125 2.45
0.875 0.25 2.2
1 0.25 2.325
0.875 0.25 2.45
0.875 0 2.325
0.875 0.125 2.2
1 0.125 2.325
0.875 0.125 2.45
0.875 0.25 2.325
0.875 0.125 2.325
1.125 0 2.2
1.25 0 2.325
1.125 0 2.45
1.25 0.125 2.2
1.25 0.125 2.45
1.125 0.25 2.2
1.25 0.25 2.325
1.125 0.25 2.45
1.125 0 2.325
1.125 0.125 2.2
1.25 0.125 2.325
1.125 0.125 2.45
1.125 0.25 2.325
1.125 0.125 2.325
1.375 0 2.2
1.5 0 2.325
1.375 0 2.45
1.5 0.125 2.2
1.5 0.125 2.45
1.375 0.25 2.2
1.5 0.25 2.325
1.375 0.25 2.45
1.375 0 2.325
1.375 0.125 2.2
1.5 0.125 2.325
1.375 0.125 2.45
1.375 0.25 2.325
1.375 0.125 2.325
1.625 0 2.2
1.75 0 2.325
1.625 0 2.45
1.75 0.125 2.2
1.75 0.125 2.45
1.625 0.25 2.2
1.75 0.25 2.325
1.625 0.25 2.45
1.625 0 2.325
1.625 0.125 2.2
1.75 0.125 2.325
1.625 0.125 2.45
1.625 0.25 2.325
1.625 0.125 2.325
1.875 0 2.2
2 0 2.325
1.875 0 2.45
2 0.125 2.2
2 0.125 2.45
1.875 0.25 2.2
2 0.25 2.325
1.875 0.25 2.45
1.875 0 2.325
1.875 0.125 2.2
2 0.125 2.325
1.875 0.125 2.45
1.875 0.25 2.325
1.875 0.125 2.325
2.125 0 2.2
2.25 0 2.325
2.125 0 2.45
2.25 0.125 2.2
2.25 0.125 2.45
2.125 0.25 2.2
2.25 0.25 2.325
2.125 0.25 2.45
2.125 0 2.325
2.125 0.125 2.2
2.25 0.125 2.325
2.125 0.125 2.45
2.125 0.25 2.325
2.125 0.125 2.325
2.375 0 2.2
2.5 0 2.325
2.375 0 2.45
2.5 0.125 2.2
2.5 0.125 2.45
2.375 0.25 2.2
2.5 0.25 2.325
2.375 0.25 2.45
2.375 0 2.325
2.375 0.125 2.2
2.5 0.125 2.325
2.375 0.125 2.45
2.375 0.25 2.325
2.375 0.125 2.325
2.625 0 2.2
2.75 0 2.325
2.625 0 2.45
2.75 0.125 2.2
2.75 0.125 2.45
2.625 0.25 2.2
2.75 0.25 2.325
2.625 0.25 2.45
2.625 0 2.325
2.625 0.125 2.2
2.75 0.125 2.325
2.625 0.125 2.45
2.625 0.25 2.325
2.625 0.125 2.325
2.875 0 2.2
3 0 2.325
2.875 0 2.45
3 0.125 2.2
3 0.125 2.45
2.875 0.25 2.2
3 0.25 2.325
2.875 0.25 2.45
2.875 0 2.325
2.875 0.125 2.2
3 0.125 2.325
2.875 0.125 2.45
2.875 0.25 2.325
2.875 0.125 2.325
3.125 0 2.2
3.25 0 2.325
3.125 0 2.45
3.25 0.125 2.2
3.25 0.125 2.45
3.125 0.25 2.2
3.25 0.25 2.325
3.125 0.25 2.45
3.125 0 2.325
3.125 0.125 2.2
3.25 0.125 2.325
3.125 0.125 2.45
3.125 0.25 2.325
3.125 0.125 2.325
3.375 0 2.2
3.5 0 2.325
3.375 0 2.45
3.5 0.125 2.2
3.5 0.125 2.45
3.375 0.25 2.2
3.5 0.25 2.325
3.375 0.25 2.45
3.375 0 2.325
3.375 0.125 2.2
3.5 0.125 2.325
3.375 0.125 2.45
3.375 0.25 2.325
3.375 0.125 2.325
3.625 0 2.2
3.75 0 2.325
3.625 0 2.45
3.75 0.125 2.2
3.75 0.125 2.45
3.625 0.25 2.2
3.75 0.25 2.325
3.625 0.25 2.45
3.625 0 2.325
3.625 0.125 2.2
3.75 0.125 2.325
3.625 0.125 2.45
3.625 0.25 2.325
3.625 0.125 2.325
3.875 0 2.2
4 0 2.325
3.875 0 2.45
4 0.125 2.2
4 0.125 2.45
3.875 0.25 2.2
4 0.25 2.325
3.875 0.25 2.45
3.875 0 2.325
3.875 0.125 2.2
4 0.125 2.325
3.875 0.125 2.45
3.875 0.25 2.325
3.875 0.125 2.325
0 0.375 2.2
0.25 0.375 2.2
0.25 0.375 2.45
0 0.375 2.45
0.125 0.5 2.2
0.25 0.5 2.325
0.125 0.5 2.45
0 0.5 2.325
0.125 0.375 2.2
0.25 0.375 2.325
0.125 0.375 2.45
0 0.375 2.325
0.125 0.5 2.325
0.125 0.375 2.325
0.5 0.375 2.2
0.5 0.375 2.45
0.375 0.5 2.2
0.5 0.5 2.325
0.375 0.5 2.45
0.375 0.375 2.2
0.5 0.375 2.325
0.375 0.375 2.45
0.375 0.5 2.325
0.375 0.375 2.325
0.75 0.375 2.2
0.75 0.375 2.45
0.625 0.5 2.2
0.75 0.5 2.325
0.625 0.5 2.45
0.625 0.375 2.2
0.75 0.375 2.325
0.625 0.375 2.45
0.625 0.5 2.325
0.625 0.375 2.325
1 0.375 2.2
1 0.375 2.45
0.875 0.5 2.2
1 0.5 2.325
0.875 0.5 2.45
0.875 0.375 2.2
1 0.375 2.325
0.875 0.375 2.45
0.875 0.5 2.325
0.875 0.375 2.325
1.25 0.375 2.2
1.25 0.375 2.45
1.125 0.5 2.2
1.25 0.5 2.325
1.125 0.5 2.45
1.125 0.375 2.2
1.25 0.375 2.325
1.125 0.375 2.45
1.125 0.5 2.325
1.125 0.375 2.325
1.5 0.375 2.2
1.5 0.375 2.45
1.375 0.5 2.2
1.5 0.5 2.325
1.375 0.5 2.45
1.375 0.375 2.2
1.5 0.375 2.325
1.375 0.375 2.45
1.375 0.5 2.325
1.375 0.375 2.325
1.75 0.375 2.2
1.75 0.375 2.45
1.625 0.5 2.2
1.75 0.5 2.325
1.625 0.5 2.45
1.625 0.375 2.2
1.75 0.375 2.325
1.625 0.375 2.45
1.625 0.5 2.325
1.625 0.375 2.325
2 0.375 2.2
2 0.375 2.45
1.875 0.5 2.2
2 0.5 2.325
1.875 0.5 2.45
1.875 0.375 2.2
2 0.375 2.325
1.875 0.375 2.45
1.875 0.5 2.325
1.875 0.375 2.325
2.25 0.375 2.2
2.25 0.375 2.45
2.125 0.5 2.2
2.25 0.5 2.325
2.125 0.5 2.45
2.125 0.375 2.2
2.25 0.375 2.325
2.125 0.375 2.45
2.125 0.5 2.325
[...]
POINT_DATA 2673
SCALARS weights float 1
LOOKUP_TABLE default
0.578704 1.15741 1.15741 1.15741 1.15741 1.15741 1.15741 1.15741 1.15741 1.15741 1.15741 1.15741 1.15741 1.15741 1.15741 1.15741 0.578704 1.15741 2.31482 2.31482 2.31482 2.31482 2.31482 2.31482 2.31482 2.31482 2.31482 2.31481 2.31482 2.31482 2.31482 2.31482 2.31482 1.15741 1.15741 2.31482 2.31482 2.31482 2.31482 2.31482 2.31482 2.31482 2.31482 2.31482 2.31481 2.31482 2.31482 2.31482 2.31482 2.31482 1.15741 1.15741 2.31482 2.31482 2.31482 2.31481 2.31482 2.31482 2.31482 2.31482 2.31482 2.31481 2.31482 2.31482 2.31482 2.31482 2.31482 1.15741 0.578704 1.15741 1.15741 1.15741 1.15741 1.15741 1.15741 1.15741 1.15741 1.15741 1.15741 1.15741 1.15741 1.15741 1.15741 1.15741 0.578704 1.15741 2.31482 2.31482 2.31481 2.31481 2.31482 2.31482 2.31482 2.31482 2.31481 2.31481 2.31481 2.31482 2.31482 2.31481 2.31481 1.15741 2.31482 4.62963 4.62963 4.62963 4.62963 4.62963 4.62963 4.62963 4.62963 4.62963 4.62963 4.62963 4.62963 4.62963 4.62963 4.62963 2.31482 2.31482 4.62963 4.62963 4.62963 4.62963 4.62963 4.62963 4.62963 4.62963 4.62963 4.62963 4.62963 4.62963 4.62963 4.62963 4.62963 2.31482 2.31481 4.62963 4.62963 4.62963 4.62963 4.62963 4.62963 4.62963 4.62963 4.62963 4.62963 4.62963 4.62963 4.62963 4.62963 4.62963 2.31482 1.15741 2.31481 2.31481 2.31481 2.31481 2.31481 2.31481 2.31481 2.31481 2.31481 2.31481 2.31481 2.31481 2.31482 2.31481 2.31481 1.15741 1.15741 2.31481 2.31481 2.31481 2.31481 2.31481 2.31481 2.31481 2.31481 2.31481 2.31481 2.31481 2.31481 2.31481 2.31481 2.31481 1.15741 2.31481 4.62963 4.62963 4.62963 4.62963 4.62963 4.62963 4.62963 4.62963 4.62963 4.62963 4.62963 4.62963 4.62963 4.62963 4.62963 2.31481 2.31481 4.62963 4.62963 4.62963 4.62963 4.62963 4.62963 4.62963 4.62963 4.62963 4.62963 4.62963 4.62963 4.62963 4.62963 4.62963 2.31481 2.31481 4.62963 4.62963 4.62963 4.62963 4.62963 4.62963 4.62963 4.62963 4.62963 4.62963 4.62963 4.62963 4.62963 4.62963 4.62963 2.31481 1.15741 2.31481 2.31481 2.31481 2.31481 2.31481 2.31481 2.31481 2.31481 2.31481 2.31481 2.31481 2.31481 2.31481 2.31481 2.31481 1.15741 1.15741 2.31481 2.31481 2.31481 2.31481 2.31481 2.31481 2.31481 2.31481 2.31481 2.31481 2.31481 2.31481 2.31481 2.31481 2.31481 1.15741 2.31481 4.62963 4.62963 4.62963 4.62963 4.62963 4.62963 4.62963 4.62963 4.62963 4.62963 4.62963 4.62963 4.62963 4.62963 4.62963 2.31482 2.31481 4.62963 4.62963 4.62963 4.62963 4.62963 4.62963 4.62963 4.62963 4.62963 4.62963 4.62963 4.62963 4.62963 4.62963 4.62963 2.31481 2.31481 4.62963 4.62963 4.62963 4.62963 4.62963 4.62963 4.62963 4.62963 4.62963 4.62963 4.62963 4.62963 4.62963 4.62963 4.62963 2.31481 1.15741 2.31481 2.31481 2.31481 2.31481 2.31481 2.31481 2.31481 2.31481 2.31481 2.31481 2.31481 2.31481 2.31481 2.31481 2.31481 1.15741 0.578704 1.15741 1.15741 1.15741 1.15741 1.15741 1.15741 1.15741 1.15741 1.15741 1.15741 1.15741 1.15741 1.15741 1.15741 1.15741 0.578704 1.15741 2.31482 2.31482 2.31482 2.31482 2.31482 2.31482 2.31482 2.31482 2.31482 2.31481 2.31482 2.31482 2.31482 2.31482 2.31482 1.15741 1.15741 2.31482 2.31482 2.31482 2.31482 2.31482 2.31482 2.31482 2.31482 2.31482 2.31481 2.31482 2.31482 2.31482 2.31482 2.31482 1.15741 1.15741 2.31482 2.31482 2.31482 2.31481 2.31482 2.31482 2.31482 2.31482 2.31481 2.31481 2.31481 2.31482 2.31482 2.31482 2.31481 1.15741 0.578704 1.15741 1.15741 1.15741 1.15741 1.15741 1.15741 1.15741 1.15741 1.15741 1.15741 1.15741 1.15741 1.15741 1.15741 1.15741 0.578704 0.578704 1.15741 1.15741 0.578704 0.578704 1.15741 2.31482 1.15741 1.15741 2.31482 2.31482 1.15741 0.578704 0.578704 1.15741 1.15741 0.578704 1.15741 0.578704 0.578704 1.15741 1.15741 1.15741 2.31482 1.15741 2.31482 2.31482 0.578704 0.578704 1.15741 1.15741 1.15741 0.578704 0.578704 1.15741 1.15741 1.15741 2.31481 1.15741 2.31482 2.31482 0.578704 0.578704 1.15741 1.15741 1.15741 0.578704 0.578704 1.15741 1.15741 1.15741 2.31481 1.15741 2.31482 2.31481 0.578704 0.578704 1.15741 1.15741 1.15741 0.578704 0.578704 1.15741 1.15741 1.15741 2.31482 1.15741 2.31482 2.31481 0.578704 0.578704 1.15741 1.15741 1.15741 0.578704 0.578704 1.15741 1.15741 1.15741 2.31482 1.15741 2.31482 2.31481 0.578704 0.578704 1.15741 1.15741 1.15741 0.578704 0.578704 1.15741 1.15741 1.15741 2.31482 1.15741 2.31482 2.31482 0.578704 0.578704 1.15741 1.15741 1.15741 0.578704 0.578704 1.15741 1.15741 1.15741 2.31482 1.15741 2.31482 2.31481 0.578704 0.578704 1.15741 1.15741 1.15741 0.578704 0.578704 1.15741 1.15741 1.15741 2.31481 1.15741 2.31482 2.31482 0.578704 0.578704 1.15741 1.15741 1.15741 0.578704 0.578704 1.15741 1.15741 1.15741 2.31481 1.15741 2.31481 2.31481 0.578704 0.578704 1.15741 1.15741 1.15741 0.578704 0.578704 1.15741 1.15741 1.15741 2.31481 1.15741 2.31482 2.31481 0.578704 0.578704 1.15741 1.15741 1.15741 0.578704 0.578704 1.15741 1.15741 1.15741 2.31482 1.15741 2.31482 2.31482 0.578704 0.578704 1.15741 1.15741 1.15741 0.578704 0.578704 1.15741 1.15741 1.15741 2.31482 1.15741 2.31482 2.31482 0.578704 0.578704 1.15741 1.15741 1.15741 0.578704 0.578704 1.15741 1.15741 1.15741 2.31481 1.15741 2.31482 2.31482 0.578704 0.578704 1.15741 1.15741 1.15741 0.578704 0.578704 1.15741 1.15741 1.15741 2.31481 1.15741 2.31482 2.31481 0.578704 0.578704 1.15741 1.15741 1.15741 0.578704 0.578704 0.578704 1.15741 0.578704 1.15741 1.15741 1.15741 2.31482 0.578704 0.578704 0.578704 1.15741 1.15741 0.578704 0.578704 1.15741 2.31482 1.15741 1.15741 2.31482 2.31482 1.15741 0.578704 1.15741 1.15741 0.578704 1.15741 0.578704 1.15741 2.31482 1.15741 2.31482 2.31482 0.578704 1.15741 1.15741 1.15741 0.578704 1.15741 2.31481 1.15741 2.31482 2.31482 0.578704 1.15741 1.15741 1.15741 0.578704 1.15741 2.31481 1.15741 2.31482 2.31481 0.578704 1.15741 1.15741 1.15741 0.578704 1.15741 2.31481 1.15741 2.31482 2.31481 0.578704 1.15741 1.15741 1.15741 0.578704 1.15741 2.31481 1.15741 2.31482 2.31482 0.578704 1.15741 1.15741 1.15741 0.578704 1.15741 2.31481 1.15741 2.31482 2.31482 0.578704 1.15741 1.15741 1.15741 0.578704 1.15741 2.31481 1.15741 2.31482 2.31481 0.578704 1.15741 1.15741 1.15741 0.578704 1.15741 2.31481 1.15741 2.31482 2.31482 0.578704 1.15741 1.15741 1.15741 0.578704 1.15741 2.31481 1.15741 2.31481 2.31481 0.578704 1.15741 1.15741 1.15741 0.578704 1.15741 2.31481 1.15741 2.31482 2.31481 0.578704 1.15741 1.15741 1.15741 0.578704 1.15741 2.31482 1.15741 2.31482 2.31482 0.578704 1.15741 1.15741 1.15741 0.578704 1.15741 2.31482 1.15741 2.31482 2.31481 0.578704 1.15741 1.15741 1.15741 0.578704 1.15741 2.31481 1.15741 2.31482 2.31482 0.578704 1.15741 1.15741 1.15741 0.578704 1.15741 2.31481 1.15741 2.31482 2.31481 0.578704 1.15741 1.15741 1.15741 0.578704 0.578704 1.15741 1.15741 1.15741 2.31482 0.578704 0.578704 1.15741 1.15741 0.578704 0.578704 1.15741 2.31482 1.15741 1.15741 2.31482 2.31481 1.15741 0.578704 1.15741 1.15741 0.578704 1.15741 0.578704 1.15741 2.31482 1.15741 2.31482 2.31481 0.578704 1.15741 1.15741 1.15741 0.578704 1.15741 2.31482 1.15741 2.31482 2.31482 0.578704 1.15741 1.15741 1.15741 0.578704 1.15741 2.31481 1.15741 2.31481 2.31481 0.578704 1.15741 1.15741 1.15741 0.578704 1.15741 2.31482 1.15741 2.31482 2.31481 0.578704 1.15741 1.15741 1.15741 0.578704 1.15741 2.31482 1.15741 2.31482 2.31482 0.578704 1.15741 1.15741 1.15741 0.578704 1.15741 2.31481 1.15741 2.31482 2.31481 0.578704 1.15741 1.15741 1.15741 0.578704 1.15741 2.31481 1.15741 2.31482 2.31481 0.578704 1.15741 1.15741 1.15741 0.578704 1.15741 2.31481 1.15741 2.31482 2.31481 0.578704 1.15741 1.15741 1.15741 0.578704 1.15741 2.31481 1.15741 2.31481 2.31481 0.578704 1.15741 1.15741 1.15741 0.578704 1.15741 2.31481 1.15741 2.31482 2.31481 0.578704 1.15741 1.15741 1.15741 0.578704 1.15741 2.31482 1.15741 2.31482 2.31482 0.578704 1.15741 1.15741 1.15741 0.578704 1.15741 2.31482 1.15741 2.31482 2.31481 0.578704 1.15741 1.15741 1.15741 0.578704 1.15741 2.31481 1.15741 2.31482 2.31482 0.578704 1.15741 1.15741 1.15741 0.578704 1.15741 2.31481 1.15741 2.31482 2.31481 0.578704 1.15741 1.15741 1.15741 0.578704 0.578704 1.15741 1.15741 1.15741 2.31482 0.578704 0.578704 1.15741 1.15741 0.578704 0.578704 1.15741 2.31481 1.15741 0.578704 1.15741 1.15741 0.578704 0.578704 1.15741 1.15741 0.578704 0.578704 0.578704 1.15741 2.31481 0.578704 1.15741 1.15741 0.578704 1.15741 1.15741 0.578704 0.578704 1.15741 2.31481 0.578704 1.15741 1.15741 0.578704 1.15741 1.15741 0.578704 0.578704 1.15741 2.31481 0.578704 1.15741 1.15741 0.578704 1.15741 1.15741 0.578704 0.578704 1.15741 2.31481 0.578704 1.15741 1.15741 0.578704 1.15741 1.15741 0.578704 0.578704 1.15741 2.31481 0.578704 1.15741 1.15741 0.578704 1.15741 1.15741 0.578704 0.578704 1.15741 2.31481 0.578704 1.15741 1.15741 0.578704 1.15741 1.15741 0.578704 0.578704 1.15741 2.31481 0.578704 1.15741 1.15741 0.578704 1.15741 1.15741 0.578704 0.578704 1.15741 2.31481 0.578704 1.15741 1.15741 0.578704 1.15741 1.15741 0.578704 0.578704 1.15741 2.31481 0.578704 1.15741 1.15741 0.578704 1.15741 1.15741 0.578704 0.578704 1.15741 2.31481 0.578704 1.15741 1.15741 0.578704 1.15741 1.15741 0.578704 0.578704 1.15741 2.31481 0.578704 1.15741 1.15741 0.578704 1.15741 1.15741 0.578704 0.578704 1.15741 2.31482 0.578704 1.15741 1.15741 0.578704 1.15741 1.15741 0.578704 0.578704 1.15741 2.31481 0.578704 1.15741 1.15741 0.578704 1.15741 1.15741 0.578704 0.578704 1.15741 2.31481 0.578704 1.15741 1.15741 0.578704 1.15741 1.15741 0.578704 0.578704 0.578704 1.15741 0.578704 0.578704 1.15741 0.578704 0.578704 1.15741 0.578704 0.578704 1.15741 1.15741 0.578704 2.31481 1.15741 2.31481 2.31481 1.15741 0.578704 1.15741 1.15741 0.578704 1.15741 0.578704 1.15741 1.15741 2.31481 2.31481 2.31481 0.578704 1.15741 1.15741 1.15741 0.578704 1.15741 1.15741 2.31481 2.31481 2.31481 0.578704 1.15741 1.15741 1.15741 0.578704 1.15741 1.15741 2.31481 2.31481 2.31481 0.578704 1.15741 1.15741 1.15741 0.578704 1.15741 1.15741 2.31481 2.31481 2.31481 0.578704 1.15741 1.15741 1.15741 0.578704 1.15741 1.15741 2.31481 2.31481 2.31481 0.578704 1.15741 1.15741 1.15741 0.578704 1.15741 1.15741 2.31481 2.31481 2.31481 0.578704 1.15741 1.15741 1.15741 0.578704 1.15741 1.15741 2.31481 2.31481 2.31481 0.578704 1.15741 1.15741 1.15741 0.578704 1.15741 1.15741 2.31481 2.31481 2.31481 0.578704 1.15741 1.15741 1.15741 0.578704 1.15741 1.15741 2.31481 2.31481 2.31481 0.578704 1.15741 1.15741 1.15741 0.578704 1.15741 1.15741 2.31481 2.31481 2.31481 0.578704 1.15741 1.15741 1.15741 0.578704 1.15741 1.15741 2.31481 2.31481 2.31481 0.578704 1.15741 1.15741 1.15741 0.578704 1.15741 1.15741 2.31481 2.31482 2.31481 0.578704 1.15741 1.15741 1.15741 0.578704 1.15741 1.15741 2.31481 2.31481 2.31481 0.578704 1.15741 1.15741 1.15741 0.578704 1.15741 1.15741 2.31481 2.31481 2.31481 0.578703 1.15741 1.15741 1.15741 0.578703 0.578704 1.15741 1.15741 1.15741 2.31481 0.578704 0.578704 1.15741 1.15741 0.578704 2.31481 1.15741 2.31481 2.31481 1.15741 1.15741 1.15741 0.578704 1.15741 0.578704 2.31481 2.31482 2.31481 1.15741 1.15741 1.15741 0.578704 2.31481 2.31481 2.31481 1.15741 1.15741 1.15741 0.578704 2.31481 2.31481 2.31481 1.15741 1.15741 1.15741 0.578704 2.31481 2.31481 2.31481 1.15741 1.15741 1.15741 0.578704 2.31481 2.31481 2.31481 1.15741 1.15741 1.15741 0.578704 2.31481 2.31481 2.31481 1.15741 1.15741 1.15741 0.578704 2.31481 2.31481 2.31481 1.15741 1.15741 1.15741 0.578704 2.31481 2.31481 2.31481 1.15741 1.15741 1.15741 0.578704 2.31481 2.31481 2.31481 1.15741 1.15741 1.15741 0.578703 2.31481 2.31481 2.31481 1.15741 1.15741 1.15741 0.578703 2.31481 2.31481 2.31481 1.15741 1.15741 1.15741 0.578704 2.31481 2.31482 2.31481 1.15741 1.15741 1.15741 0.578704 2.31481 2.31481 2.31481 1.15741 1.15741 1.15741 0.578704 2.31481 2.31481 2.31481 1.15741 1.15741 1.15741 0.578703 1.15741 1.15741 2.31481 0.578704 1.15741 1.15741 0.578704 2.31481 1.15741 2.31481 2.31481 1.15741 1.15741 1.15741 0.578704 1.15741 0.578704 2.31481 2.31481 2.31481 1.15741 1.15741 1.15741 0.578704 2.31481 2.31481 2.31481 1.15741 1.15741 1.15741 0.578704 2.31481 2.31481 2.31481 1.15741 1.15741 1.15741 0.578704 2.31481 2.31481 2.31481 1.15741 1.15741 1.15741 0.578704 2.31481 2.31481 2.31481 1.15741 1.15741 1.15741 0.578704 2.31481 2.31481 2.31481 1.15741 1.15741 1.15741 0.578704 2.31481 2.31481 2.31481 1.15741 1.15741 1.15741 0.578704 2.31481 2.31481 2.31481 1.15741 1.15741 1.15741 0.578704 2.31481 2.31481 2.31481 1.15741 1.15741 1.15741 0.578704 2.31481 2.31481 2.31481 1.15741 1.15741 1.15741 0.578704 2.31481 2.31481 2.31481 1.15741 1.15741 1.15741 0.578704 2.31481 2.31482 2.31481 1.15741 1.15741 1.15741 0.578704 2.31481 2.31481 2.31481 1.15741 1.15741 1.15741 0.578704 2.31481 2.31481 2.31481 1.15741 1.15741 1.15741 0.578703 1.15741 1.15741 2.31481 0.578704 1.15741 1.15741 0.578704 2.31481 1.15741 1.15741 1.15741 0.578704 1.15741 1.15741 0.578704 0.578704 0.578704 2.31481 1.15741 1.15741 1.15741 1.15741 0.578704 0.578704 2.31481 1.15741 1.15741 1.15741 1.15741 0.578704 0.578704 2.31481 1.15741 1.15741 1.15741 1.15741 0.578704 0.578704 2.31481 1.15741 1.15741 1.15741 1.15741 0.578704 0.578704 2.31481 1.15741 1.15741 1.15741 1.15741 0.578704 0.578704 2.31481 1.15741 1.15741 1.15741 1.15741 0.578704 0.578704 2.31481 1.15741 1.15741 1.15741 1.15741 0.578704 0.578704 2.31481 1.15741 1.15741 1.15741 1.15741 0.578704 0.578704 2.31481 1.15741 1.15741 1.15741 1.15741 0.578704 0.578704 2.31481 1.15741 1.15741 1.15741 1.15741 0.578704 0.578704 2.31481 1.15741 1.15741 1.15741 1.15741 0.578704 0.578704 2.31481 1.15741 1.15741 1.15741 1.15741 0.578704 0.578704 2.31481 1.15741 1.15741 1.15741 1.15741 0.578704 0.578704 2.31481 1.15741 1.15741 1.15741 1.15741 0.578703 0.578703 1.15741 0.578704 1.15741 0.578704 1.15741 0.578704 0.578704 1.15741 1.15741 0.578703 2.31481 1.15741 2.31481 2.31481 1.15741 0.578703 1.15741 1.15741 0.578703 1.15741 0.578703 1.15741 1.15741 2.31481 2.31481 2.31481 0.578703 1.15741 1.15741 1.15741 0.578703 1.15741 1.15741 2.31481 2.31481 2.31481 0.578703 1.15741 1.15741 1.15741 0.578703 1.15741 1.15741 2.31481 2.31481 2.31481 0.578703 1.15741 1.15741 1.15741 0.578703 1.15741 1.15741 2.31481 2.31481 2.31481 0.578703 1.15741 1.15741 1.15741 0.578703 1.15741 1.15741 2.31481 2.31481 2.31481 0.578703 1.15741 1.15741 1.15741 0.578703 1.15741 1.15741 2.31481 2.31481 2.31481 0.578703 1.15741 1.15741 1.15741 0.578703 1.15741 1.15741 2.31481 2.31481 2.31481 0.578703 1.15741 1.15741 1.15741 0.578703 1.15741 1.15741 2.31481 2.31481 2.31481 0.578703 1.15741 1.15741 1.15741 0.578703 1.15741 1.15741 2.31481 2.31481 2.31481 0.578703 1.15741 1.15741 1.15741 0.578703 1.15741 1.15741 2.31481 2.31481 2.31481 0.578703 1.15741 1.15741 1.15741 0.578703 1.15741 1.15741 2.31481 2.31481 2.31481 0.578703 1.15741 1.15741 1.15741 0.578703 1.15741 1.15741 2.31481 2.31481 2.31481 0.578703 1.15741 1.15741 1.15741 0.578703 1.15741 1.15741 2.31481 2.31481 2.31482 0.578704 1.15741 1.15741 1.15741 0.578704 1.15741 1.15741 2.31481 2.31481 2.31481 0.578703 1.15741 1.15741 1.15741 0.578703 0.578704 1.15741 1.15741 1.15741 2.31482 0.578704 0.578704 1.15741 1.15741 0.578704 2.31481 1.15741 2.31481 2.31481 1.15741 1.15741 1.15741 0.578703 1.15741 0.578703 2.31481 2.31481 2.31481 1.15741 1.15741 1.15741 0.578703 2.31481 2.31481 2.31481 1.15741 1.15741 1.15741 0.578703 2.31481 2.31481 2.31481 1.15741 1.15741 1.15741 0.578703 2.31481 2.31481 2.31481 1.15741 1.15741 1.15741 0.578703 2.31481 2.31481 2.31481 1.15741 1.15741 1.15741 0.578703 2.31481 2.31481 2.31481 1.15741 1.15741 1.15741 0.578703 2.31481 2.31481 2.31481 1.15741 1.15741 1.15741 0.578703 2.31481 2.31481 2.31481 1.15741 1.15741 1.15741 0.578703 2.31481 2.31481 2.31481 1.15741 1.15741 1.15741 0.578703 2.31481 2.31481 2.31481 1.15741 1.15741 1.15741 0.578703 2.31481 2.31481 2.31481 1.15741 1.15741 1.15741 0.578703 2.31481 2.31481 2.31481 1.15741 1.15741 1.15741 0.578703 2.31481 2.31481 2.31482 1.15741 1.15741 1.15741 0.578704 2.31481 2.31481 2.31481 1.15741 1.15741 1.15741 0.578703 1.15741 1.15741 2.31481 0.578703 1.15741 1.15741 0.578703 2.31481 1.15741 2.31481 2.31481 1.15741 1.15741 1.15741 0.578703 1.15741 0.578703 2.31481 2.31481 2.31481 1.15741 1.15741 1.15741 0.578703 2.31481 2.31481 2.31481 1.15741 1.15741 1.15741 0.578703 2.31481 2.31481 2.31481 1.15741 1.15741 1.15741 0.578703 2.31481 2.31481 2.31481 1.15741 1.15741 1.15741 0.578703 2.31481 2.31481 2.31481 1.15741 1.15741 1.15741 0.578703 2.31481 2.31481 2.31481 1.15741 1.15741 1.15741 0.578703 2.31481 2.31481 2.31481 1.15741 1.15741 1.15741 0.578703 2.31481 2.31481 2.31481 1.15741 1.15741 1.15741 0.578703 2.31481 2.31481 2.31481 1.15741 1.15741 1.15741 0.578703 2.31481 2.31481 2.31481 1.15741 1.15741 1.15741 0.578703 2.31481 2.31481 2.31481 1.15741 1.15741 1.15741 0.578703 2.31481 2.31481 2.31481 1.15741 1.15741 1.15741 0.578703 2.31481 2.31481 2.31481 1.15741 1.15741 1.15741 0.578704 2.31481 2.31481 2.31481 1.15741 1.15741 1.15741 0.578703 1.15741 1.15741 2.31481 0.578703 1.15741 1.15741 0.578703 2.31481 1.15741 1.15741 1.15741 0.578703 1.15741 1.15741 0.578703 0.578703 0.578703 2.31481 1.15741 1.15741 1.15741 1.15741 0.578703 0.578703 2.31481 1.15741 1.15741 1.15741 1.15741 0.578703 0.578703 2.31481 1.15741 1.15741 1.15741 1.15741 0.578703 0.578703 2.31481 1.15741 1.15741 1.15741 1.15741 0.578703 0.578703 2.31481 1.15741 1.15741 1.15741 1.15741 0.578703 0.578703 2.31481 1.15741 1.15741 1.15741 1.15741 0.578703 0.578703 2.31481 1.15741 1.15741 1.15741 1.15741 0.578703 0.578703 2.31481 1.15741 1.15741 1.15741 1.15741 0.578703 0.578703 2.31481 1.15741 1.15741 1.15741 1.15741 0.578703 0.578703 2.31481 1.15741 1.15741 1.15741 1.15741 0.578703 0.578703 2.31481 1.15741 1.15741 1.15741 1.15741 0.578703 0.578703 2.31481 1.15741 1.15741 1.15741 1.15741 0.578703 0.578703 2.31481 1.15741 1.15741 1.15741 1.15741 0.578703 0.578703 2.31481 1.15741 1.15741 1.15741 1.15741 0.578703 0.578703 1.15741 0.578703 1.15741 0.578703 1.15741 0.578703 0.578703 1.15741 0.578704 0.578704 1.15741 0.578704 2.31482 1.15741 1.15741 0.578704 1.15741 0.578704 0.578704 1.15741 0.578704 1.15741 0.578704 1.15741 2.31482 1.15741 0.578704 1.15741 0.578704 1.15741 0.578704 1.15741 0.578704 1.15741 2.31482 1.15741 0.578704 1.15741 0.578704 1.15741 0.578704 1.15741 0.578704 1.15741 2.31482 1.15741 0.578704 1.15741 0.578704 1.15741 0.578704 1.15741 0.578704 1.15741 2.31482 1.15741 0.578704 1.15741 0.578704 1.15741 0.578704 1.15741 0.578704 1.15741 2.31482 1.15741 0.578704 1.15741 0.578704 1.15741 0.578704 1.15741 0.578704 1.15741 2.31482 1.15741 0.578704 1.15741 0.578704 1.15741 0.578704 1.15741 0.578704 1.15741 2.31482 1.15741 0.578704 1.15741 0.578704 1.15741 0.578704 1.15741 0.578704 1.15741 2.31482 1.15741 0.578704 1.15741 0.578704 1.15741 0.578704 1.15741 0.578704 1.15741 2.31481 1.15741 0.578704 1.15741 0.578704 1.15741 0.578704 1.15741 0.578704 1.15741 2.31482 1.15741 0.578704 1.15741 0.578704 1.15741 0.578704 1.15741 0.578704 1.15741 2.31482 1.15741 0.578704 1.15741 0.578704 1.15741 0.578704 1.15741 0.578704 1.15741 2.31482 1.15741 0.578704 1.15741 0.578704 1.15741 0.578704 1.15741 0.578704 1.15741 2.31482 1.15741 0.578704 1.15741 0.578704 1.15741 0.578704 1.15741 0.578704 1.15741 2.31482 1.15741 0.578704 1.15741 0.578704 1.15741 0.578704 0.578704 0.578704 0.578704 1.15741 1.15741 0.578704 0.578704 0.578704 1.15741 0.578704 1.15741 0.578704 2.31482 1.15741 1.15741 1.15741 0.578704 0.578704 1.15741 0.578704 1.15741 2.31482 1.15741 1.15741 0.578704 1.15741 0.578704 1.15741 2.31482 1.15741 1.15741 0.578704 1.15741 0.578704 1.15741 2.31482 1.15741 1.15741 0.578704 1.15741 0.578704 1.15741 2.31482 1.15741 1.15741 0.578704 1.15741 0.578704 1.15741 2.31482 1.15741 1.15741 0.578704 1.15741 0.578704 1.15741 2.31482 1.15741 1.15741 0.578704 1.15741 0.578704 1.15741 2.31482 1.15741 1.15741 0.578704 1.15741 0.578704 1.15741 2.31482 1.15741 1.15741 0.578704 1.15741 0.578704 1.15741 2.31481 1.15741 1.15741 0.578704 1.15741 0.578704 1.15741 2.31482 1.15741 1.15741 0.578704 1.15741 0.578704 1.15741 2.31482 1.15741 1.15741 0.578704 1.15741 0.578704 1.15741 2.31482 1.15741 1.15741 0.578704 1.15741 0.578704 1.15741 2.31482 1.15741 1.157