# vtk DataFile Version 5.1
vtk output
ASCII

DATASET UNSTRUCTURED_GRID
POINTS 2673 float
0 0 2.2
0.25 0 2.2
0.5 0 2.2
0.75 0 2.2
1 0 2.2
1.25 0 2.2
1.5 0 2.2
1.75 0 2.2
2 0 2.2
2.25 0 2.2
2.5 0 2.2
2.75 0 2.2
3 0 2.2
3.25 0 2.2
3.5 0 2.2
3.75 0 2.2
4 0 2.2
0 0.25 2.2
0.25 0.25 2.2
0.5 0.25 2.2
0.75 0.25 2.2
1 0.25 2.2
1.25 0.25 2.2
1.5 0.25 2.2
1.75 0.25 2.2
2 0.25 2.2
2.25 0.25 2.2
2.5 0.25 2.2
2.75 0.25 2.2
3 0.25 2.2
3.25 0.25 2.2
3.5 0.25 2.2
3.75 0.25 2.2
4 0.25 2.2
0 0.5 2.2
0.25 0.5 2.2
0.5 0.5 2.2
0.75 0.5 2.2
1 0.5 2.2
1.25 0.5 2.2
1.5 0.5 2.2
1.75 0.5 2.2
2 0.5 2.2
2.25 0.5 2.2
2.5 0.5 2.2
2.75 0.5 2.2
3 0.5 2.2
3.25 0.5 2.2
3.5 0.5 2.2
3.75 0.5 2.2
4 0.5 2.2
0 0.75 2.2
0.25 0.75 2.2
0.5 0.75 2.2
0.75 0.75 2.2
1 0.75 2.2
1.25 0.75 2.2
1.5 0.75 2.2
1.75 0.75 2.2
2 0.75 2.2
2.25 0.75 2.2
2.5 0.75 2.2
2.75 0.75 2.2
3 0.75 2.2
3.25 0.75 2.2
3.5 0.75 2.2
3.75 0.75 2.2
4 0.75 2.2
0 1 2.2
0.25 1 2.2
0.5 1 2.2
0.75 1 2.2
1 1 2.2
1.25 1 2.2
1.5 1 2.2
1.75 1 2.2
2 1 2.2
2.25 1 2.2
2.5 1 2.2
2.75 1 2.2
3 1 2.2
3.25 1 2.2
3.5 1 2.2
3.75 1 2.2
4 1 2.2
0 0 2.45
0.25 0 2.45
0.5 0 2.45
0.75 0 2.45
1 0 2.45
1.25 0 2.45
1.5 0 2.45
1.75 0 2.45
2 0 2.45
2.25 0 2.45
2.5 0 2.45
2.75 0 2.45
3 0 2.45
3.25 0 2.45
3.5 0 2.45
3.75 0 2.45
4 0 2.45
0 0.25 2.45
0.25 0.25 2.45
0.5 0.25 2.45
0.75 0.25 2.45
1 0.25 2.45
1.25 0.25 2.45
1.5 0.25 2.45
1.75 0.25 2.45
2 0.25 2.45
2.25 0.25 2.45
2.5 0.25 2.45
2.75 0.25 2.45
3 0.25 2.45
3.25 0.25 2.45
3.5 0.25 2.45
3.75 0.25 2.45
4 0.25 2.45
0 0.5 2.45
0.25 0.5 2.45
0.5 0.5 2.45
0.75 0.5 2.45
1 0.5 2.45
1.25 0.5 2.45
1.5 0.5 2.45
1.75 0.5 2.45
2 0.5 2.45
2.25 0.5 2.45
2.5 0.5 2.45
2.75 0.5 2.45
3 0.5 2.45
3.25 0.5 2.45
3.5 0.5 2.45
3.75 0.5 2.45
4 0.5 2.45
0 0.75 2.45
0.25 0.75 2.45
0.5 0.75 2.45
0.75 0.75 2.45
1 0.75 2.45
1.25 0.75 2.45
1.5 0.75 2.45
1.75 0.75 2.45
2 0.75 2.45
2.25 0.75 2.45
2.5 0.75 2.45
2.75 0.75 2.45
3 0.75 2.45
3.25 0.75 2.45
3.5 0.75 2.45
3.75 0.75 2.45
4 0.75 2.45
0 1 2.45
0.25 1 2.45
0.5 1 2.45
0.75 1 2.45
1 1 2.45
1.25 1 2.45
1.5 1 2.45
1.75 1 2.45
2 1 2.45
2.25 1 2.45
2.5 1 2.45
2.75 1 2.45
3 1 2.45
3.25 1 2.45
3.5 1 2.45
3.75 1 2.45
4 1 2.45
0 0 2.7
0.25 0 2.7
0.5 0 2.7
0.75 0 2.7
1 0 2.7
1.25 0 2.7
1.5 0 2.7
1.75 0 2.7
2 0 2.7
2.25 0 2.7
2.5 0 2.7
2.75 0 2.7
3 0 2.7
3.25 0 2.7
3.5 0 2.7
3.75 0 2.7
4 0 2.7
0 0.25 2.7
0.25 0.25 2.7
0.5 0.25 2.7
0.75 0.25 2.7
1 0.25 2.7
1.25 0.25 2.7
1.5 0.25 2.7
1.75 0.25 2.7
2 0.25 2.7
2.25 0.25 2.7
2.5 0.25 2.7
2.75 0.25 2.7
3 0.25 2.7
3.25 0.25 2.7
3.5 0.25 2.7
3.75 0.25 2.7
4 0.25 2.7
0 0.5 2.7
0.25 0.5 2.7
0.5 0.5 2.7
0.75 0.5 2.7
1 0.5 2.7
1.25 0.5 2.7
1.5 0.5 2.7
1.75 0.5 2.7
2 0.5 2.7
2.25 0.5 2.7
2.5 0.5 2.7
2.75 0.5 2.7
3 0.5 2.7
3.25 0.5 2.7
3.5 0.5 2.7
3.75 0.5 2.7
4 0.5 2.7
0 0.75 2.7
0.25 0.75 2.7
0.5 0.75 2.7
0.75 0.75 2.7
1 0.75 2.7
1.25 0.75 2.7
1.5 0.75 2.7
1.75 0.75 2.7
2 0.75 2.7
2.25 0.75 2.7
2.5 0.75 2.7
2.75 0.75 2.7
3 0.75 2.7
3.25 0.75 2.7
3.5 0.75 2.7
3.75 0.75 2.7
4 0.75 2.7
0 1 2.7
0.25 1 2.7
0.5 1 2.7
0.75 1 2.7
1 1 2.7
1.25 1 2.7
1.5 1 2.7
1.75 1 2.7
2 1 2.7
2.25 1 2.7
2.5 1 2.7
2.75 1 2.7
3 1 2.7
3.25 1 2.7
3.5 1 2.7
3.75 1 2.7
4 1 2.7
0 0 2.95
0.25 0 2.95
0.5 0 2.95
0.75 0 2.95
1 0 2.95
1.25 0 2.95
1.5 0 2.95
1.75 0 2.95
2 0 2.95
2.25 0 2.95
2.5 0 2.95
2.75 0 2.95
3 0 2.95
3.25 0 2.95
3.5 0 2.95
3.75 0 2.95
4 0 2.95
0 0.25 2.95
0.25 0.25 2.95
0.5 0.25 2.95
0.75 0.25 2.95
1 0.25 2.95
1.25 0.25 2.95
1.5 0.25 2.95
1.75 0.25 2.95
2 0.25 2.95
2.25 0.25 2.95
2.5 0.25 2.95
2.75 0.25 2.95
3 0.25 2.95
3.25 0.25 2.95
3.5 0.25 2.95
3.75 0.25 2.95
4 0.25 2.95
0 0.5 2.95
0.25 0.5 2.95
0.5 0.5 2.95
0.75 0.5 2.95
1 0.5 2.95
1.25 0.5 2.95
1.5 0.5 2.95
1.75 0.5 2.95
2 0.5 2.95
2.25 0.5 2.95
2.5 0.5 2.95
2.75 0.5 2.95
3 0.5 2.95
3.25 0.5 2.95
3.5 0.5 2.95
3.75 0.5 2.95
4 0.5 2.95
0 0.75 2.95
0.25 0.75 2.95
0.5 0.75 2.95
0.75 0.75 2.95
1 0.75 2.95
1.25 0.75 2.95
1.5 0.75 2.95
1.75 0.75 2.95
2 0.75 2.95
2.25 0.75 2.95
2.5 0.75 2.95
2.75 0.75 2.95
3 0.75 2.95
3.25 0.75 2.95
3.5 0.75 2.95
3.75 0.75 2.95
4 0.75 2.95
0 1 2.95
0.25 1 2.95
0.5 1 2.95
0.75 1 2.95
1 1 2.95
1.25 1 2.95
1.5 1 2.95
1.75 1 2.95
2 1 2.95
2.25 1 2.95
2.5 1 2.95
2.75 1 2.95
3 1 2.95
3.25 1 2.95
3.5 1 2.95
3.75 1 2.95
4 1 2.95
0 0 3.2
0.25 0 3.2
0.5 0 3.2
0.75 0 3.2
1 0 3.2
1.25 0 3.2
1.5 0 3.2
1.75 0 3.2
2 0 3.2
2.25 0 3.2
2.5 0 3.2
2.75 0 3.2
3 0 3.2
3.25 0 3.2
3.5 0 3.2
3.75 0 3.2
4 0 3.2
0 0.25 3.2
0.25 0.25 3.2
0.5 0.25 3.2
0.75 0.25 3.2
1 0.25 3.2
1.25 0.25 3.2
1.5 0.25 3.2
1.75 0.25 3.2
2 0.25 3.2
2.25 0.25 3.2
2.5 0.25 3.2
2.75 0.25 3.2
3 0.25 3.2
3.25 0.25 3.2
3.5 0.25 3.2
3.75 0.25 3.2
4 0.25 3.2
0 0.5 3.2
0.25 0.5 3.2
0.5 0.5 3.2
0.75 0.5 3.2
1 0.5 3.2
1.25 0.5 3.2
1.5 0.5 3.2
1.75 0.5 3.2
2 0.5 3.2
2.25 0.5 3.2
2.5 0.5 3.2
2.75 0.5 3.2
3 0.5 3.2
3.25 0.5 3.2
3.5 0.5 3.2
3.75 0.5 3.2
4 0.5 3.2
0 0.75 3.2
0.25 0.75 3.2
0.5 0.75 3.2
0.75 0.75 3.2
1 0.75 3.2
1.25 0.75 3.2
1.5 0.75 3.2
1.75 0.75 3.2
2 0.75 3.2
2.25 0.75 3.2
2.5 0.75 3.2
2.75 0.75 3.2
3 0.75 3.2
3.25 0.75 3.2
3.5 0.75 3.2
3.75 0.75 3.2
4 0.75 3.2
0 1 3.2
0.25 1 3.2
0.5 1 3.2
0.75 1 3.2
1 1 3.2
1.25 1 3.2
1.5 1 3.2
1.75 1 3.2
2 1 3.2
2.25 1 3.2
2.5 1 3.2
2.75 1 3.2
3 1 3.2
3.25 1 3.2
3.5 1 3.2
3.75 1 3.2
4 1 3.2
0 0.125 2.2
0.125 0.25 2.325
0.125 0.125 2.325
0.125 0.125 2.2
0.125 0.25 2.2
0.25 0.25 2.325
0.125 0.125 2.45
0.25 0.125 2.45
0.125 0 2.45
0 0 2.325
0.125 0 2.325
0 0.25 2.325
0 0.125 2.325
0.125 0.25 2.45
0 0.125 2.45
0.25 0 2.325
0.125 0 2.2
0.25 0.125 2.325
0.25 0.125 2.2
0.375 0.25 2.325
0.375 0.125 2.325
0.375 0.125 2.2
0.375 0.25 2.2
0.5 0.25 2.325
0.375 0.125 2.45
0.5 0.125 2.45
0.375 0 2.45
0.375 0 2.325
0.375 0.25 2.45
0.5 0 2.325
0.375 0 2.2
0.5 0.125 2.325
0.5 0.125 2.2
0.625 0.25 2.325
0.625 0.125 2.325
0.625 0.125 2.2
0.625 0.25 2.2
0.75 0.25 2.325
0.625 0.125 2.45
0.75 0.125 2.45
0.625 0 2.45
0.625 0 2.325
0.625 0.25 2.45
0.75 0 2.325
0.625 0 2.2
0.75 0.125 2.325
0.75 0.125 2.2
0.875 0.25 2.325
0.875 0.125 2.325
0.875 0.125 2.2
0.875 0.25 2.2
1 0.25 2.325
0.875 0.125 2.45
1 0.125 2.45
0.875 0 2.45
0.875 0 2.325
0.875 0.25 2.45
1 0 2.325
0.875 0 2.2
1 0.125 2.325
1 0.125 2.2
1.125 0.25 2.325
1.125 0.125 2.325
1.125 0.125 2.2
1.125 0.25 2.2
1.25 0.25 2.325
1.125 0.125 2.45
1.25 0.125 2.45
1.125 0 2.45
1.125 0 2.325
1.125 0.25 2.45
1.25 0 2.325
1.125 0 2.2
1.25 0.125 2.325
1.25 0.125 2.2
1.375 0.25 2.325
1.375 0.125 2.325
1.375 0.125 2.2
1.375 0.25 2.2
1.5 0.25 2.325
1.375 0.125 2.45
1.5 0.125 2.45
1.375 0 2.45
1.375 0 2.325
1.375 0.25 2.45
1.5 0 2.325
1.375 0 2.2
1.5 0.125 2.325
1.5 0.125 2.2
1.625 0.25 2.325
1.625 0.125 2.325
1.625 0.125 2.2
1.625 0.25 2.2
1.75 0.25 2.325
1.625 0.125 2.45
1.75 0.125 2.45
1.625 0 2.45
1.625 0 2.325
1.625 0.25 2.45
1.75 0 2.325
1.625 0 2.2
1.75 0.125 2.325
1.75 0.125 2.2
1.875 0.25 2.325
1.875 0.125 2.325
1.875 0.125 2.2
1.875 0.25 2.2
2 0.25 2.325
1.875 0.125 2.45
2 0.125 2.45
1.875 0 2.45
1.875 0 2.325
1.875 0.25 2.45
2 0 2.325
1.875 0 2.2
2 0.125 2.325
2 0.125 2.2
2.125 0.25 2.325
2.125 0.125 2.325
2.125 0.125 2.2
2.125 0.25 2.2
2.25 0.25 2.325
2.125 0.125 2.45
2.25 0.125 2.45
2.125 0 2.45
2.125 0 2.325
2.125 0.25 2.45
2.25 0 2.325
2.125 0 2.2
2.25 0.125 2.325
2.25 0.125 2.2
2.375 0.25 2.325
2.375 0.125 2.325
2.375 0.125 2.2
2.375 0.25 2.2
2.5 0.25 2.325
2.375 0.125 2.45
2.5 0.125 2.45
2.375 0 2.45
2.375 0 2.325
2.375 0.25 2.45
2.5 0 2.325
2.375 0 2.2
2.5 0.125 2.325
2.5 0.125 2.2
2.625 0.25 2.325
2.625 0.125 2.325
2.625 0.125 2.2
2.625 0.25 2.2
2.75 0.25 2.325
2.625 0.125 2.45
2.75 0.125 2.45
2.625 0 2.45
2.625 0 2.325
2.625 0.25 2.45
2.75 0 2.325
2.625 0 2.2
2.75 0.125 2.325
2.75 0.125 2.2
2.875 0.25 2.325
2.875 0.125 2.325
2.875 0.125 2.2
2.875 0.25 2.2
3 0.25 2.325
2.875 0.125 2.45
3 0.125 2.45
2.875 0 2.45
2.875 0 2.325
2.875 0.25 2.45
3 0 2.325
2.875 0 2.2
3 0.125 2.325
3 0.125 2.2
3.125 0.25 2.325
3.125 0.125 2.325
3.125 0.125 2.2
3.125 0.25 2.2
3.25 0.25 2.325
3.125 0.125 2.45
3.25 0.125 2.45
3.125 0 2.45
3.125 0 2.325
3.125 0.25 2.45
3.25 0 2.325
3.125 0 2.2
3.25 0.125 2.325
3.25 0.125 2.2
3.375 0.25 2.325
3.375 0.125 2.325
3.375 0.125 2.2
3.375 0.25 2.2
3.5 0.25 2.325
3.375 0.125 2.45
3.5 0.125 2.45
3.375 0 2.45
3.375 0 2.325
3.375 0.25 2.45
3.5 0 2.325
3.375 0 2.2
3.5 0.125 2.325
3.5 0.125 2.2
3.625 0.25 2.325
3.625 0.125 2.325
3.625 0.125 2.2
3.625 0.25 2.2
3.75 0.25 2.325
3.625 0.125 2.45
3.75 0.125 2.45
3.625 0 2.45
3.625 0 2.325
3.625 0.25 2.45
3.75 0 2.325
3.625 0 2.2
3.75 0.125 2.325
3.75 0.125 2.2
3.875 0.25 2.325
3.875 0.125 2.325
3.875 0.125 2.2
3.875 0.25 2.2
4 0.25 2.325
3.875 0.125 2.45
4 0.125 2.45
3.875 0 2.45
3.875 0 2.325
3.875 0.25 2.45
4 0 2.325
3.875 0 2.2
4 0.125 2.325
4 0.125 2.2
0 0.375 2.2
0.125 0.5 2.325
0.125 0.375 2.325
0.125 0.375 2.2
0.125 0.5 2.2
0.25 0.5 2.325
0.125 0.375 2.45
0.25 0.375 2.45
0 0.5 2.325
0 0.375 2.325
0.125 0.5 2.45
0 0.375 2.45
0.25 0.375 2.325
0.25 0.375 2.2
0.375 0.5 2.325
0.375 0.375 2.325
0.375 0.375 2.2
0.375 0.5 2.2
0.5 0.5 2.325
0.375 0.375 2.45
0.5 0.375 2.45
0.375 0.5 2.45
0.5 0.375 2.325
0.5 0.375 2.2
0.625 0.5 2.325
0.625 0.375 2.325
0.625 0.375 2.2
0.625 0.5 2.2
0.75 0.5 2.325
0.625 0.375 2.45
0.75 0.375 2.45
0.625 0.5 2.45
0.75 0.375 2.325
0.75 0.375 2.2
0.875 0.5 2.325
0.875 0.375 2.325
0.875 0.375 2.2
0.875 0.5 2.2
1 0.5 2.325
0.875 0.375 2.45
1 0.375 2.45
0.875 0.5 2.45
1 0.375 2.325
1 0.375 2.2
1.125 0.5 2.325
1.125 0.375 2.325
1.125 0.375 2.2
1.125 0.5 2.2
1.25 0.5 2.325
1.125 0.375 2.45
1.25 0.375 2.45
1.125 0.5 2.45
1.25 0.375 2.325
1.25 0.375 2.2
1.375 0.5 2.325
1.375 0.375 2.325
1.375 0.375 2.2
1.375 0.5 2.2
1.5 0.5 2.325
1.375 0.375 2.45
1.5 0.375 2.45
1.375 0.5 2.45
1.5 0.375 2.325
1.5 0.375 2.2
1.625 0.5 2.325
1.625 0.375 2.325
1.625 0.375 2.2
1.625 0.5 2.2
1.75 0.5 2.325
1.625 0.375 2.45
1.75 0.375 2.45
1.625 0.5 2.45
1.75 0.375 2.325
1.75 0.375 2.2
1.875 0.5 2.325
1.875 0.375 2.325
1.875 0.375 2.2
1.875 0.5 2.2
2 0.5 2.325
1.875 0.375 2.45
2 0.375 2.45
1.875 0.5 2.45
2 0.375 2.325
2 0.375 2.2
2.125 0.5 2.325
2.125 0.375 2.325
2.125 0.375 2.2
2.125 0.5 2.2
2.25 0.5 2.325
2.125 0.375 2.45
2.25 0.375 2.45
2.125 0.5 2.45
2.25 0.375 2.325
[...]
POINT_DATA 2673
SCALARS weights float 1
LOOKUP_TABLE default
1.5625 2.08333 2.08333 2.08333 2.08333 2.08333 2.08333 2.08333 2.08333 2.08333 2.08333 2.08333 2.08333 2.08333 2.08333 2.08333 0.520833 2.08333 3.125 3.125 3.125 3.125 3.125 3.125 3.125 3.125 3.125 3.125 3.125 3.125 3.125 3.125 3.125 1.04167 2.08333 3.125 3.125 3.125 3.125 3.125 3.125 3.125 3.125 3.125 3.125 3.125 3.125 3.125 3.125 3.125 1.04167 2.08333 3.125 3.125 3.125 3.125 3.125 3.125 3.125 3.125 3.125 3.125 3.125 3.125 3.125 3.125 3.125 1.04167 0.520833 1.04167 1.04167 1.04167 1.04167 1.04167 1.04167 1.04167 1.04167 1.04167 1.04167 1.04167 1.04167 1.04167 1.04166 1.04167 0.520833 2.08333 3.125 3.125 3.125 3.125 3.125 3.125 3.125 3.125 3.125 3.125 3.125 3.125 3.125 3.125 3.125 1.04167 3.125 6.25 6.25 6.25 6.25 6.25 6.25 6.25 6.25 6.25 6.25 6.25 6.25 6.25 6.25 6.25 3.125 3.125 6.25 6.25 6.25 6.25 6.25 6.25 6.25 6.25 6.25 6.25 6.25 6.25 6.25 6.25 6.25 3.125 3.125 6.25 6.25 6.25 6.25 6.25 6.25 6.25 6.25 6.25 6.25 6.25 6.25 6.25 6.25 6.25 3.125 1.04167 3.125 3.125 3.125 3.125 3.125 3.125 3.125 3.125 3.125 3.125 3.125 3.125 3.125 3.125 3.125 2.08333 2.08333 3.125 3.125 3.125 3.125 3.125 3.125 3.125 3.125 3.125 3.125 3.125 3.125 3.125 3.125 3.125 1.04167 3.125 6.25 6.25 6.25 6.25 6.25 6.25 6.25 6.25 6.25 6.25 6.25 6.25 6.25 6.25 6.25 3.125 3.125 6.25 6.25 6.25 6.25 6.25 6.25 6.25 6.25 6.25 6.25 6.25 6.25 6.25 6.25 6.25 3.125 3.125 6.25 6.25 6.25 6.25 6.25 6.25 6.25 6.25 6.25 6.25 6.25 6.25 6.25 6.25 6.25 3.125 1.04167 3.125 3.125 3.125 3.125 3.125 3.125 3.125 3.125 3.125 3.125 3.125 3.125 3.125 3.125 3.125 2.08333 2.08333 3.125 3.125 3.125 3.125 3.125 3.125 3.125 3.125 3.125 3.125 3.125 3.125 3.125 3.125 3.125 1.04167 3.125 6.25 6.25 6.25 6.25 6.25 6.25 6.25 6.25 6.25 6.25 6.25001 6.25 6.25 6.25 6.25 3.125 3.125 6.25 6.25 6.25 6.25 6.25 6.25 6.25 6.25 6.25 6.25 6.25001 6.25 6.25 6.25 6.25 3.125 3.125 6.25 6.25 6.25 6.25 6.25 6.25 6.25 6.25 6.25 6.25 6.25001 6.25 6.25 6.25 6.25 3.125 1.04167 3.125 3.125 3.125 3.125 3.125 3.125 3.125 3.125 3.125 3.125 3.125 3.125 3.125 3.125 3.125 2.08333 0.520833 1.04167 1.04167 1.04167 1.04167 1.04167 1.04167 1.04167 1.04167 1.04167 1.04167 1.04167 1.04167 1.04167 1.04167 1.04167 0.520833 1.04167 3.125 3.125 3.125 3.125 3.125 3.125 3.125 3.125 3.125 3.125 3.125 3.125 3.125 3.125 3.125 2.08334 1.04167 3.125 3.125 3.125 3.125 3.125 3.125 3.125 3.125 3.125 3.125 3.125 3.125 3.125 3.125 3.125 2.08334 1.04167 3.125 3.125 3.125 3.125 3.125 3.125 3.125 3.125 3.125 3.125 3.125 3.125 3.125 3.125 3.125 2.08334 0.520833 2.08333 2.08333 2.08333 2.08333 2.08333 2.08333 2.08333 2.08333 2.08333 2.08333 2.08334 2.08333 2.08333 2.08333 2.08333 1.5625 0.520833 1.04167 1.5625 0.520833 0.781249 1.5625 1.04167 1.5625 0.78125 0.520833 0.520833 0.78125 0.520833 1.5625 0.78125 0.78125 0.520833 1.04167 0.781249 1.04167 1.5625 0.520833 0.781249 1.5625 1.04167 1.5625 0.78125 0.520833 1.5625 0.78125 0.520833 1.04167 0.781249 1.04167 1.5625 0.520833 0.781249 1.5625 1.04167 1.5625 0.78125 0.520833 1.5625 0.78125 0.520833 1.04167 0.781249 1.04167 1.5625 0.520833 0.781249 1.5625 1.04167 1.5625 0.78125 0.520833 1.5625 0.78125 0.520833 1.04167 0.781249 1.04167 1.5625 0.520833 0.781249 1.5625 1.04167 1.5625 0.78125 0.520833 1.5625 0.78125 0.520833 1.04167 0.781249 1.04167 1.5625 0.520833 0.781249 1.5625 1.04167 1.5625 0.78125 0.520833 1.5625 0.78125 0.520833 1.04167 0.781249 1.04167 1.5625 0.520833 0.781249 1.5625 1.04167 1.5625 0.78125 0.520833 1.5625 0.781249 0.520833 1.04167 0.781249 1.04167 1.5625 0.520833 0.781249 1.5625 1.04167 1.5625 0.78125 0.520833 1.5625 0.78125 0.520833 1.04167 0.781249 1.04167 1.5625 0.520832 0.781249 1.5625 1.04167 1.5625 0.781249 0.520833 1.5625 0.78125 0.520832 1.04167 0.781249 1.04167 1.5625 0.520833 0.781249 1.5625 1.04167 1.5625 0.78125 0.520833 1.5625 0.78125 0.520832 1.04167 0.781249 1.04167 1.5625 0.520833 0.78125 1.5625 1.04167 1.5625 0.781251 0.520833 1.5625 0.78125 0.520833 1.04167 0.78125 1.04167 1.5625 0.520833 0.78125 1.5625 1.04167 1.5625 0.78125 0.520833 1.5625 0.78125 0.520833 1.04167 0.781249 1.04167 1.5625 0.520833 0.781249 1.5625 1.04167 1.5625 0.78125 0.520833 1.5625 0.78125 0.520833 1.04167 0.781249 1.04167 1.5625 0.520833 0.781249 1.5625 1.04167 1.5625 0.781251 0.520833 1.5625 0.78125 0.520833 1.04167 0.781249 1.04167 1.5625 0.520832 0.781249 1.5625 1.04167 1.5625 0.78125 0.520833 1.5625 0.78125 0.520833 1.04167 0.78125 1.04167 1.5625 0.520833 0.78125 0.78125 1.04167 0.78125 0.78125 0.520833 1.5625 0.260416 0.520833 0.520833 0.260416 0.520833 1.04167 1.5625 0.520833 0.781249 1.5625 1.04167 1.5625 0.78125 0.520833 1.5625 0.78125 1.04167 0.781249 1.04167 1.5625 0.520833 0.781249 1.5625 1.04167 1.5625 1.5625 1.04167 0.78125 1.04167 1.5625 0.520833 0.781249 1.5625 1.04167 1.5625 1.5625 1.04167 0.781249 1.04167 1.5625 0.520833 0.781249 1.5625 1.04167 1.5625 1.5625 1.04167 0.781249 1.04167 1.5625 0.520833 0.781249 1.5625 1.04167 1.5625 1.5625 1.04167 0.781249 1.04167 1.5625 0.520833 0.781249 1.5625 1.04167 1.5625 1.5625 1.04167 0.781249 1.04167 1.5625 0.520833 0.781249 1.5625 1.04167 1.5625 1.5625 1.04167 0.781249 1.04167 1.5625 0.520833 0.781249 1.5625 1.04167 1.5625 1.5625 1.04167 0.78125 1.04167 1.5625 0.520833 0.781249 1.5625 1.04167 1.5625 1.5625 1.04167 0.781249 1.04167 1.5625 0.520833 0.781249 1.5625 1.04167 1.5625 1.5625 1.04167 0.78125 1.04167 1.5625 0.520833 0.78125 1.5625 1.04167 1.5625 1.5625 1.04167 0.78125 1.04167 1.5625 0.520833 0.781249 1.5625 1.04167 1.5625 1.5625 1.04167 0.781249 1.04167 1.5625 0.520833 0.781249 1.5625 1.04167 1.5625 1.5625 1.04167 0.781249 1.04167 1.5625 0.520833 0.781249 1.5625 1.04167 1.5625 1.5625 1.04167 0.781249 1.04167 1.5625 0.520833 0.781249 1.5625 1.04167 1.5625 1.5625 1.04167 0.78125 1.04167 1.5625 0.520833 0.78125 0.78125 1.04167 0.78125 1.5625 0.520833 0.260416 0.520833 1.04167 1.5625 0.520833 0.781249 1.5625 1.04167 1.5625 0.78125 0.520833 1.5625 0.781251 1.04167 0.78125 1.04167 1.5625 0.520833 0.781249 1.5625 1.04167 1.5625 1.5625 1.04167 0.78125 1.04167 1.5625 0.520833 0.781249 1.5625 1.04167 1.5625 1.5625 1.04167 0.781249 1.04167 1.5625 0.520833 0.781249 1.5625 1.04167 1.5625 1.5625 1.04167 0.78125 1.04167 1.5625 0.520833 0.781249 1.5625 1.04167 1.5625 1.5625 1.04167 0.781249 1.04167 1.5625 0.520833 0.781249 1.5625 1.04167 1.5625 1.5625 1.04167 0.781249 1.04167 1.5625 0.520833 0.781249 1.5625 1.04167 1.5625 1.5625 1.04167 0.781249 1.04167 1.5625 0.520833 0.781249 1.5625 1.04167 1.5625 1.5625 1.04167 0.78125 1.04167 1.5625 0.520833 0.781248 1.5625 1.04167 1.5625 1.5625 1.04167 0.781249 1.04167 1.5625 0.520833 0.781249 1.5625 1.04167 1.5625 1.5625 1.04167 0.78125 1.04167 1.5625 0.520833 0.78125 1.5625 1.04167 1.5625 1.5625 1.04167 0.78125 1.04167 1.5625 0.520833 0.781249 1.5625 1.04167 1.5625 1.5625 1.04167 0.781249 1.04167 1.5625 0.520833 0.781249 1.5625 1.04167 1.5625 1.5625 1.04167 0.78125 1.04167 1.5625 0.520833 0.781249 1.5625 1.04167 1.5625 1.5625 1.04167 0.781249 1.04167 1.5625 0.520833 0.781249 1.5625 1.04167 1.5625 1.5625 1.04167 0.78125 1.04167 1.5625 0.520833 0.78125 0.78125 1.04167 0.78125 1.5625 0.520833 0.260416 0.520833 0.520833 1.5625 0.520833 0.260416 0.781249 1.04167 1.5625 0.260417 0.520833 0.78125 0.78125 1.04167 0.781249 0.520833 1.5625 0.520833 0.260416 0.781249 1.04167 1.5625 0.78125 1.04167 0.781249 0.520833 1.5625 0.520833 0.260416 0.781249 1.04167 1.5625 0.78125 1.04167 0.781249 0.520833 1.5625 0.520833 0.260416 0.781249 1.04167 1.5625 0.78125 1.04167 0.781249 0.520833 1.5625 0.520833 0.260416 0.781249 1.04167 1.5625 0.78125 1.04167 0.781249 0.520833 1.5625 0.520833 0.260416 0.781249 1.04167 1.5625 0.78125 1.04167 0.781249 0.520833 1.5625 0.520833 0.260416 0.781249 1.04167 1.5625 0.78125 1.04167 0.781249 0.520833 1.5625 0.520833 0.260416 0.781249 1.04167 1.5625 0.78125 1.04167 0.781249 0.520833 1.5625 0.520832 0.260416 0.781249 1.04167 1.5625 0.78125 1.04167 0.781249 0.520833 1.5625 0.520832 0.260416 0.781249 1.04167 1.5625 0.78125 1.04167 0.781249 0.520833 1.5625 0.520833 0.260417 0.78125 1.04167 1.5625 0.781251 1.04167 0.78125 0.520834 1.5625 0.520833 0.260417 0.781249 1.04167 1.5625 0.781251 1.04167 0.781249 0.520833 1.5625 0.520833 0.260416 0.781249 1.04167 1.5625 0.78125 1.04167 0.781249 0.520833 1.5625 0.520833 0.260416 0.781249 1.04167 1.5625 0.78125 1.04167 0.781249 0.520832 1.5625 0.520832 0.260416 0.781249 1.04167 1.5625 0.78125 1.04167 0.78125 0.520834 1.5625 0.520833 0.260417 0.520833 1.04167 0.78125 0.781251 0.520832 0.260416 1.04167 1.5625 1.5625 1.04167 1.5625 0.78125 0.520833 0.520833 0.78125 0.520833 1.5625 0.78125 0.781249 1.04167 1.04167 1.5625 1.5625 1.04167 1.5625 0.78125 0.520833 1.5625 0.781249 1.04167 1.04167 1.5625 1.5625 1.04167 1.5625 0.78125 0.520833 1.5625 0.781249 1.04167 1.04167 1.5625 1.5625 1.04167 1.5625 0.78125 0.520833 1.5625 0.781249 1.04167 1.04167 1.5625 1.5625 1.04167 1.5625 0.78125 0.520833 1.5625 0.78125 1.04167 1.04167 1.5625 1.5625 1.04167 1.5625 0.78125 0.520833 1.5625 0.781249 1.04167 1.04167 1.5625 1.5625 1.04167 1.5625 0.78125 0.520833 1.5625 0.781249 1.04167 1.04167 1.5625 1.5625 1.04167 1.5625 0.781249 0.520833 1.5625 0.781249 1.04167 1.04167 1.5625 1.5625 1.04167 1.5625 0.781249 0.520833 1.5625 0.781249 1.04167 1.04167 1.5625 1.5625 1.04167 1.5625 0.78125 0.520833 1.5625 0.78125 1.04167 1.04167 1.5625 1.5625 1.04167 1.5625 0.78125 0.520833 1.5625 0.78125 1.04167 1.04167 1.5625 1.5625 1.04167 1.5625 0.78125 0.520833 1.5625 0.781249 1.04167 1.04167 1.5625 1.5625 1.04167 1.5625 0.78125 0.520833 1.5625 0.78125 1.04167 1.04167 1.5625 1.5625 1.04167 1.5625 0.78125 0.520833 1.5625 0.781249 1.04167 1.04167 1.5625 1.5625 1.04167 1.5625 0.781249 0.520833 1.5625 0.781249 1.04167 1.04167 1.5625 0.781251 1.04167 0.78125 0.78125 0.520833 1.5625 0.260417 0.520833 1.04167 1.5625 1.5625 1.04167 1.5625 0.78125 0.520833 1.5625 0.78125 1.04167 1.04167 1.5625 1.5625 1.04167 1.5625 1.5625 1.04167 1.04167 1.5625 1.5625 1.04167 1.5625 1.5625 1.04167 1.04167 1.5625 1.5625 1.04167 1.5625 1.5625 1.04167 1.04167 1.5625 1.5625 1.04167 1.5625 1.5625 1.04167 1.04167 1.5625 1.5625 1.04167 1.5625 1.5625 1.04167 1.04167 1.5625 1.5625 1.04167 1.5625 1.5625 1.04167 1.04167 1.5625 1.5625 1.04167 1.5625 1.5625 1.04167 1.04167 1.5625 1.5625 1.04167 1.5625 1.5625 1.04167 1.04167 1.5625 1.5625 1.04167 1.5625 1.5625 1.04167 1.04167 1.5625 1.5625 1.04167 1.5625 1.5625 1.04167 1.04167 1.5625 1.5625 1.04167 1.5625 1.5625 1.04167 1.04167 1.5625 1.5625 1.04167 1.5625 1.5625 1.04167 1.04167 1.5625 1.5625 1.04167 1.5625 1.5625 1.04167 1.04167 1.5625 1.5625 1.04167 1.5625 1.5625 1.04167 1.04167 1.5625 0.781251 1.04167 0.78125 1.5625 0.520833 1.04167 1.5625 1.5625 1.04167 1.5625 0.78125 0.520833 1.5625 0.78125 1.04167 1.04167 1.5625 1.5625 1.04167 1.5625 1.5625 1.04167 1.04167 1.5625 1.5625 1.04167 1.5625 1.5625 1.04167 1.04167 1.5625 1.5625 1.04167 1.5625 1.5625 1.04167 1.04167 1.5625 1.5625 1.04167 1.5625 1.5625 1.04167 1.04167 1.5625 1.5625 1.04167 1.5625 1.5625 1.04167 1.04167 1.5625 1.5625 1.04167 1.5625 1.5625 1.04167 1.04167 1.5625 1.5625 1.04167 1.5625 1.5625 1.04167 1.04167 1.5625 1.5625 1.04167 1.5625 1.5625 1.04167 1.04167 1.5625 1.5625 1.04167 1.5625 1.5625 1.04167 1.04167 1.5625 1.5625 1.04167 1.5625 1.5625 1.04167 1.04167 1.5625 1.5625 1.04167 1.5625 1.5625 1.04167 1.04167 1.5625 1.5625 1.04167 1.5625 1.5625 1.04167 1.04167 1.5625 1.5625 1.04167 1.5625 1.5625 1.04167 1.04167 1.5625 1.5625 1.04167 1.5625 1.5625 1.04167 1.04167 1.5625 0.781251 1.04167 0.78125 1.5625 0.520833 0.520834 1.5625 0.78125 1.04167 1.5625 0.260417 0.520833 0.78125 0.781249 1.04167 0.520834 1.5625 0.78125 1.04167 1.5625 0.78125 1.04167 0.520834 1.5625 0.78125 1.04167 1.5625 0.78125 1.04167 0.520834 1.5625 0.78125 1.04167 1.5625 0.78125 1.04167 0.520834 1.5625 0.78125 1.04167 1.5625 0.78125 1.04167 0.520834 1.5625 0.78125 1.04167 1.5625 0.78125 1.04167 0.520833 1.5625 0.78125 1.04167 1.5625 0.781249 1.04167 0.520834 1.5625 0.781251 1.04167 1.5625 0.781249 1.04167 0.520834 1.5625 0.78125 1.04167 1.5625 0.78125 1.04167 0.520834 1.5625 0.78125 1.04167 1.5625 0.78125 1.04167 0.520834 1.5625 0.781251 1.04167 1.5625 0.78125 1.04167 0.520834 1.5625 0.78125 1.04167 1.5625 0.78125 1.04167 0.520833 1.5625 0.78125 1.04167 1.5625 0.781249 1.04167 0.520834 1.5625 0.78125 1.04167 1.5625 0.781249 1.04167 0.520833 1.5625 0.78125 1.04167 1.5625 0.781249 1.04167 0.520835 1.5625 0.520834 1.04167 0.78125 0.781251 0.520833 1.04167 1.5625 1.5625 1.04167 1.5625 0.78125 0.520833 0.520833 0.78125 0.520833 1.5625 0.78125 0.78125 1.04167 1.04167 1.5625 1.5625 1.04167 1.5625 0.78125 0.520833 1.5625 0.781249 1.04167 1.04167 1.5625 1.5625 1.04167 1.5625 0.78125 0.520833 1.5625 0.781249 1.04167 1.04167 1.5625 1.5625 1.04167 1.5625 0.78125 0.520833 1.5625 0.781249 1.04167 1.04167 1.5625 1.5625 1.04167 1.5625 0.78125 0.520833 1.5625 0.78125 1.04167 1.04167 1.5625 1.5625 1.04167 1.5625 0.781251 0.520833 1.5625 0.781249 1.04167 1.04167 1.5625 1.5625 1.04167 1.5625 0.78125 0.520833 1.5625 0.781249 1.04167 1.04167 1.5625 1.5625 1.04167 1.5625 0.78125 0.520833 1.5625 0.781249 1.04167 1.04167 1.5625 1.5625 1.04167 1.5625 0.78125 0.520833 1.5625 0.781249 1.04167 1.04167 1.5625 1.5625 1.04167 1.5625 0.78125 0.520833 1.5625 0.78125 1.04167 1.04167 1.5625 1.5625 1.04167 1.5625 0.781251 0.520833 1.5625 0.78125 1.04167 1.04167 1.5625 1.5625 1.04167 1.5625 0.78125 0.520833 1.5625 0.781249 1.04167 1.04167 1.5625 1.5625 1.04167 1.5625 0.781251 0.520833 1.5625 0.78125 1.04167 1.04167 1.5625 1.5625 1.04167 1.5625 0.781251 0.520833 1.5625 0.781249 1.04167 1.04167 1.5625 1.5625 1.04167 1.5625 0.78125 0.520833 1.5625 0.781249 1.04167 1.04167 1.5625 0.78125 1.04167 0.78125 0.78125 0.520833 1.5625 0.260416 0.520833 1.04167 1.5625 1.5625 1.04167 1.5625 0.78125 0.520833 1.5625 0.78125 1.04167 1.04167 1.5625 1.5625 1.04167 1.5625 1.5625 1.04167 1.04167 1.5625 1.5625 1.04167 1.5625 1.5625 1.04167 1.04167 1.5625 1.5625 1.04167 1.5625 1.5625 1.04167 1.04167 1.5625 1.5625 1.04167 1.5625 1.5625 1.04167 1.04167 1.5625 1.5625 1.04167 1.5625 1.5625 1.04167 1.04167 1.5625 1.5625 1.04167 1.5625 1.5625 1.04167 1.04167 1.5625 1.5625 1.04167 1.5625 1.5625 1.04167 1.04167 1.5625 1.5625 1.04167 1.5625 1.5625 1.04167 1.04167 1.5625 1.5625 1.04167 1.5625 1.5625 1.04167 1.04167 1.5625 1.5625 1.04167 1.5625 1.5625 1.04167 1.04167 1.5625 1.5625 1.04167 1.5625 1.5625 1.04167 1.04167 1.5625 1.5625 1.04167 1.5625 1.5625 1.04167 1.04167 1.5625 1.5625 1.04167 1.5625 1.5625 1.04167 1.04167 1.5625 1.5625 1.04167 1.5625 1.5625 1.04167 1.04167 1.5625 0.78125 1.04167 0.78125 1.5625 0.520833 1.04167 1.5625 1.5625 1.04167 1.5625 0.78125 0.520833 1.5625 0.781251 1.04167 1.04167 1.5625 1.5625 1.04167 1.5625 1.5625 1.04167 1.04167 1.5625 1.5625 1.04167 1.5625 1.5625 1.04167 1.04167 1.5625 1.5625 1.04167 1.5625 1.5625 1.04167 1.04167 1.5625 1.5625 1.04167 1.5625 1.5625 1.04167 1.04167 1.5625 1.5625 1.04167 1.5625 1.5625 1.04167 1.04167 1.5625 1.5625 1.04167 1.5625 1.5625 1.04167 1.04167 1.5625 1.5625 1.04167 1.5625 1.5625 1.04167 1.04167 1.5625 1.5625 1.04167 1.5625 1.5625 1.04167 1.04167 1.5625 1.5625 1.04167 1.5625 1.5625 1.04167 1.04167 1.5625 1.5625 1.04167 1.5625 1.5625 1.04167 1.04167 1.5625 1.5625 1.04167 1.5625 1.5625 1.04167 1.04167 1.5625 1.5625 1.04167 1.5625 1.5625 1.04167 1.04167 1.5625 1.5625 1.04167 1.5625 1.5625 1.04167 1.04167 1.5625 1.5625 1.04167 1.5625 1.5625 1.04167 1.04167 1.5625 0.78125 1.04167 0.78125 1.5625 0.520833 0.520833 1.5625 0.78125 1.04167 1.5625 0.260417 0.520833 0.78125 0.78125 1.04167 0.520833 1.5625 0.78125 1.04167 1.5625 0.78125 1.04167 0.520833 1.5625 0.78125 1.04167 1.5625 0.78125 1.04167 0.520833 1.5625 0.78125 1.04167 1.5625 0.78125 1.04167 0.520833 1.5625 0.78125 1.04167 1.5625 0.78125 1.04167 0.520833 1.5625 0.78125 1.04167 1.5625 0.78125 1.04167 0.520833 1.5625 0.78125 1.04167 1.5625 0.78125 1.04167 0.520833 1.5625 0.78125 1.04167 1.5625 0.78125 1.04167 0.520833 1.5625 0.78125 1.04167 1.5625 0.78125 1.04167 0.520833 1.5625 0.78125 1.04167 1.5625 0.78125 1.04167 0.520833 1.5625 0.78125 1.04167 1.5625 0.781251 1.04167 0.520834 1.5625 0.78125 1.04167 1.5625 0.781251 1.04167 0.520833 1.5625 0.78125 1.04167 1.5625 0.78125 1.04167 0.520833 1.5625 0.78125 1.04167 1.5625 0.78125 1.04167 0.520833 1.5625 0.78125 1.04167 1.5625 0.78125 1.04167 0.520834 1.5625 0.520834 1.04167 0.78125 0.781251 0.520833 1.04167 1.5625 1.5625 0.520833 0.78125 0.260417 0.520833 0.520833 0.78125 0.520834 0.78125 0.260417 0.78125 1.04167 1.04167 1.5625 1.5625 0.520833 0.78125 0.260417 0.520833 0.78125 0.78125 1.04167 1.04167 1.5625 1.5625 0.520833 0.78125 0.260417 0.520833 0.78125 0.78125 1.04167 1.04167 1.5625 1.5625 0.520833 0.78125 0.260417 0.520833 0.78125 0.78125 1.04167 1.04167 1.5625 1.5625 0.520833 0.78125 0.260417 0.520833 0.78125 0.78125 1.04167 1.04167 1.5625 1.5625 0.520834 0.78125 0.260417 0.520834 0.78125 0.78125 1.04167 1.04167 1.5625 1.5625 0.520833 0.78125 0.260417 0.520833 0.78125 0.78125 1.04167 1.04167 1.5625 1.5625 0.520833 0.78125 0.260416 0.520833 0.781249 0.78125 1.04167 1.04167 1.5625 1.5625 0.520833 0.78125 0.260416 0.520833 0.78125 0.78125 1.04167 1.04167 1.5625 1.5625 0.520833 0.78125 0.260417 0.520833 0.78125 0.78125 1.04167 1.04167 1.5625 1.5625 0.520834 0.781251 0.260417 0.520834 0.781251 0.781251 1.04167 1.04167 1.5625 1.5625 0.520834 0.78125 0.260417 0.520833 0.781251 0.78125 1.04167 1.04167 1.5625 1.5625 0.520833 0.78125 0.260417 0.520834 0.78125 0.781251 1.04167 1.04167 1.5625 1.5625 0.520834 0.78125 0.260417 0.520834 0.78125 0.78125 1.04167 1.04167 1.5625 1.5625 0.520833 0.78125 0.260416 0.520833 0.78125 0.78125 1.04167 1.04167 1.5625 0.781252 0.520833 0.520833 0.260417 0.520833 0.781251 0.260417 0.520834 1.04167 1.5625 1.5625 0.520833 0.78125 0.78125 0.520834 0.78125 0.260417 1.04167 1.04167 1.5625 1.5625 0.520833 0.78125 0.78125 1.04167 1.04167 1.5625 1.5625 0.520833 0.78125 0.78125 1.04167 1.04167 1.5625 1.5625 0.520833 0.78125 0.78125 1.04167 1.04167 1.5625 1.5625 0.520833 0.78125 0.78125 1.04167 1.04167 1.5625 1.5625 0.520834 0.78125 0.78125 1.04167 1.04167 1.5625 1.5625 0.520833 0.78125 0.78125 1.04167 1.04167 1.5625 1.5625 0.520833 0.78125 0.78125 1.04167 1.04167 1.5625 1.5625 0.520833 0.78125 0.78125 1.04167 1.04167 1.5625 1.5625 0.520833 0.78125 0.78125 1.04167 1.04167 1.5625 1.5625 0.520834 0.781251 0.781251 1.04167 1.04167 1.5625 1.5625 0.520834 0.78125 0.781251 1.04167 1.04167 1.5625 1.5625 0.520833 0.78125 0.78125 1.04167 1.04167 1.5625 1.5625 0.520834 0.781251 0.78125 1.04167 1.04167 1.5625 1.5625 0.520833 0.78125 0.78125 1.04167 1.04167 1.5625 0.781252 0.520833 0.520833 0.78125 0.520834 1.04167 1.5625 1.5625 0.520833 0.78125 0.78125 0.520834 0.78125 0.260417 1.04167 1.04167 1.5625 1.5625 0.520833 0.78125 0.78125 1.04167 1.04167 1.5625 1.5625 0.520833 0.78125 0.78125 1.04167 1.04167 1.5625 1.5625 0.520833 0.78125 0.78125 1.04167 1.04167 1.5625 1.5625 0.520833 0.78125 0.78125 1.04167 1.04167 1.5625 1.5625 0.520834 0.78125 0.78125 1.04167 1.04167 1.5625 1.5625 0.520833 0.78125 0.78125 1.04167 1.04167 1.5625 1.5625 0.520833 0.78125 0.78125 1.04167 1.04167 1.5625 1.5625 0.520833 0.78125 0.78125 1.04167 1.04167 1.5625 1.5625 0.520833 0.78125 0.78125 1.04167 1.04167 1.5625 1.5625 0.520834 0.781251 0.781251 1.04167 1.04167 1.5625 1.5625 0.520834 0.78125 0.781251 1.04167 1.04167 1.5625 1.5625 0.520833 0.78125 0.78125 1.04167 1.04167 1.5625 1.5625 0.520834 0.781251 0.78125 1.04167 1.04167 1.5625 1.5625 0.520833 0.78125 0.78125 1.04167 1.04167 1.5625 0.781252 0.520833 0.520833 0.781251 0.520834 0.520834 1.5625 0.781251 0.520833 0.78125 0.260417 0.520833 0.520833 0.260417 1.04167 0.520834 1.5625 0.781251 0.520833 0.78125 0.520833 1.04167 0.520834 1.5625 0.781251 0.520833 0.78125 0.520833 1.04167 0.520834 1.5625 0.781251 0.520833 0.78125 0.520833 1.04167 0.520834 1.5625 0.781251 0.520833 0.78125 0.520833 1.04167 0.520834 1.5625 0.781251 0.520833 0.78125 0.520833 1.04167 0.520834 1.5625 0.781251 0.520833 0.78125 0.520833 1.04167 0.520834 1.5625 0.781251 0.520833 0.78125 0.520833 1.04167 0.520834 