# vtk DataFile Version 5.1
vtk output
ASCII

DATASET UNSTRUCTURED_GRID
POINTS 18785 float
0 0 3.3
0.125 0 3.3
0.25 0 3.3
0.375 0 3.3
0.5 0 3.3
0.625 0 3.3
0.75 0 3.3
0.875 0 3.3
1 0 3.3
1.125 0 3.3
1.25 0 3.3
1.375 0 3.3
1.5 0 3.3
1.625 0 3.3
1.75 0 3.3
1.875 0 3.3
2 0 3.3
2.125 0 3.3
2.25 0 3.3
2.375 0 3.3
2.5 0 3.3
2.625 0 3.3
2.75 0 3.3
2.875 0 3.3
3 0 3.3
3.125 0 3.3
3.25 0 3.3
3.375 0 3.3
3.5 0 3.3
3.625 0 3.3
3.75 0 3.3
3.875 0 3.3
4 0 3.3
0 0.125 3.3
0.125 0.125 3.3
0.25 0.125 3.3
0.375 0.125 3.3
0.5 0.125 3.3
0.625 0.125 3.3
0.75 0.125 3.3
0.875 0.125 3.3
1 0.125 3.3
1.125 0.125 3.3
1.25 0.125 3.3
1.375 0.125 3.3
1.5 0.125 3.3
1.625 0.125 3.3
1.75 0.125 3.3
1.875 0.125 3.3
2 0.125 3.3
2.125 0.125 3.3
2.25 0.125 3.3
2.375 0.125 3.3
2.5 0.125 3.3
2.625 0.125 3.3
2.75 0.125 3.3
2.875 0.125 3.3
3 0.125 3.3
3.125 0.125 3.3
3.25 0.125 3.3
3.375 0.125 3.3
3.5 0.125 3.3
3.625 0.125 3.3
3.75 0.125 3.3
3.875 0.125 3.3
4 0.125 3.3
0 0.25 3.3
0.125 0.25 3.3
0.25 0.25 3.3
0.375 0.25 3.3
0.5 0.25 3.3
0.625 0.25 3.3
0.75 0.25 3.3
0.875 0.25 3.3
1 0.25 3.3
1.125 0.25 3.3
1.25 0.25 3.3
1.375 0.25 3.3
1.5 0.25 3.3
1.625 0.25 3.3
1.75 0.25 3.3
1.875 0.25 3.3
2 0.25 3.3
2.125 0.25 3.3
2.25 0.25 3.3
2.375 0.25 3.3
2.5 0.25 3.3
2.625 0.25 3.3
2.75 0.25 3.3
2.875 0.25 3.3
3 0.25 3.3
3.125 0.25 3.3
3.25 0.25 3.3
3.375 0.25 3.3
3.5 0.25 3.3
3.625 0.25 3.3
3.75 0.25 3.3
3.875 0.25 3.3
4 0.25 3.3
0 0.375 3.3
0.125 0.375 3.3
0.25 0.375 3.3
0.375 0.375 3.3
0.5 0.375 3.3
0.625 0.375 3.3
0.75 0.375 3.3
0.875 0.375 3.3
1 0.375 3.3
1.125 0.375 3.3
1.25 0.375 3.3
1.375 0.375 3.3
1.5 0.375 3.3
1.625 0.375 3.3
1.75 0.375 3.3
1.875 0.375 3.3
2 0.375 3.3
2.125 0.375 3.3
2.25 0.375 3.3
2.375 0.375 3.3
2.5 0.375 3.3
2.625 0.375 3.3
2.75 0.375 3.3
2.875 0.375 3.3
3 0.375 3.3
3.125 0.375 3.3
3.25 0.375 3.3
3.375 0.375 3.3
3.5 0.375 3.3
3.625 0.375 3.3
3.75 0.375 3.3
3.875 0.375 3.3
4 0.375 3.3
0 0.5 3.3
0.125 0.5 3.3
0.25 0.5 3.3
0.375 0.5 3.3
0.5 0.5 3.3
0.625 0.5 3.3
0.75 0.5 3.3
0.875 0.5 3.3
1 0.5 3.3
1.125 0.5 3.3
1.25 0.5 3.3
1.375 0.5 3.3
1.5 0.5 3.3
1.625 0.5 3.3
1.75 0.5 3.3
1.875 0.5 3.3
2 0.5 3.3
2.125 0.5 3.3
2.25 0.5 3.3
2.375 0.5 3.3
2.5 0.5 3.3
2.625 0.5 3.3
2.75 0.5 3.3
2.875 0.5 3.3
3 0.5 3.3
3.125 0.5 3.3
3.25 0.5 3.3
3.375 0.5 3.3
3.5 0.5 3.3
3.625 0.5 3.3
3.75 0.5 3.3
3.875 0.5 3.3
4 0.5 3.3
0 0.625 3.3
0.125 0.625 3.3
0.25 0.625 3.3
0.375 0.625 3.3
0.5 0.625 3.3
0.625 0.625 3.3
0.75 0.625 3.3
0.875 0.625 3.3
1 0.625 3.3
1.125 0.625 3.3
1.25 0.625 3.3
1.375 0.625 3.3
1.5 0.625 3.3
1.625 0.625 3.3
1.75 0.625 3.3
1.875 0.625 3.3
2 0.625 3.3
2.125 0.625 3.3
2.25 0.625 3.3
2.375 0.625 3.3
2.5 0.625 3.3
2.625 0.625 3.3
2.75 0.625 3.3
2.875 0.625 3.3
3 0.625 3.3
3.125 0.625 3.3
3.25 0.625 3.3
3.375 0.625 3.3
3.5 0.625 3.3
3.625 0.625 3.3
3.75 0.625 3.3
3.875 0.625 3.3
4 0.625 3.3
0 0.75 3.3
0.125 0.75 3.3
0.25 0.75 3.3
0.375 0.75 3.3
0.5 0.75 3.3
0.625 0.75 3.3
0.75 0.75 3.3
0.875 0.75 3.3
1 0.75 3.3
1.125 0.75 3.3
1.25 0.75 3.3
1.375 0.75 3.3
1.5 0.75 3.3
1.625 0.75 3.3
1.75 0.75 3.3
1.875 0.75 3.3
2 0.75 3.3
2.125 0.75 3.3
2.25 0.75 3.3
2.375 0.75 3.3
2.5 0.75 3.3
2.625 0.75 3.3
2.75 0.75 3.3
2.875 0.75 3.3
3 0.75 3.3
3.125 0.75 3.3
3.25 0.75 3.3
3.375 0.75 3.3
3.5 0.75 3.3
3.625 0.75 3.3
3.75 0.75 3.3
3.875 0.75 3.3
4 0.75 3.3
0 0.875 3.3
0.125 0.875 3.3
0.25 0.875 3.3
0.375 0.875 3.3
0.5 0.875 3.3
0.625 0.875 3.3
0.75 0.875 3.3
0.875 0.875 3.3
1 0.875 3.3
1.125 0.875 3.3
1.25 0.875 3.3
1.375 0.875 3.3
1.5 0.875 3.3
1.625 0.875 3.3
1.75 0.875 3.3
1.875 0.875 3.3
2 0.875 3.3
2.125 0.875 3.3
2.25 0.875 3.3
2.375 0.875 3.3
2.5 0.875 3.3
2.625 0.875 3.3
2.75 0.875 3.3
2.875 0.875 3.3
3 0.875 3.3
3.125 0.875 3.3
3.25 0.875 3.3
3.375 0.875 3.3
3.5 0.875 3.3
3.625 0.875 3.3
3.75 0.875 3.3
3.875 0.875 3.3
4 0.875 3.3
0 1 3.3
0.125 1 3.3
0.25 1 3.3
0.375 1 3.3
0.5 1 3.3
0.625 1 3.3
0.75 1 3.3
0.875 1 3.3
1 1 3.3
1.125 1 3.3
1.25 1 3.3
1.375 1 3.3
1.5 1 3.3
1.625 1 3.3
1.75 1 3.3
1.875 1 3.3
2 1 3.3
2.125 1 3.3
2.25 1 3.3
2.375 1 3.3
2.5 1 3.3
2.625 1 3.3
2.75 1 3.3
2.875 1 3.3
3 1 3.3
3.125 1 3.3
3.25 1 3.3
3.375 1 3.3
3.5 1 3.3
3.625 1 3.3
3.75 1 3.3
3.875 1 3.3
4 1 3.3
0 0 3.425
0.125 0 3.425
0.25 0 3.425
0.375 0 3.425
0.5 0 3.425
0.625 0 3.425
0.75 0 3.425
0.875 0 3.425
1 0 3.425
1.125 0 3.425
1.25 0 3.425
1.375 0 3.425
1.5 0 3.425
1.625 0 3.425
1.75 0 3.425
1.875 0 3.425
2 0 3.425
2.125 0 3.425
2.25 0 3.425
2.375 0 3.425
2.5 0 3.425
2.625 0 3.425
2.75 0 3.425
2.875 0 3.425
3 0 3.425
3.125 0 3.425
3.25 0 3.425
3.375 0 3.425
3.5 0 3.425
3.625 0 3.425
3.75 0 3.425
3.875 0 3.425
4 0 3.425
0 0.125 3.425
0.125 0.125 3.425
0.25 0.125 3.425
0.375 0.125 3.425
0.5 0.125 3.425
0.625 0.125 3.425
0.75 0.125 3.425
0.875 0.125 3.425
1 0.125 3.425
1.125 0.125 3.425
1.25 0.125 3.425
1.375 0.125 3.425
1.5 0.125 3.425
1.625 0.125 3.425
1.75 0.125 3.425
1.875 0.125 3.425
2 0.125 3.425
2.125 0.125 3.425
2.25 0.125 3.425
2.375 0.125 3.425
2.5 0.125 3.425
2.625 0.125 3.425
2.75 0.125 3.425
2.875 0.125 3.425
3 0.125 3.425
3.125 0.125 3.425
3.25 0.125 3.425
3.375 0.125 3.425
3.5 0.125 3.425
3.625 0.125 3.425
3.75 0.125 3.425
3.875 0.125 3.425
4 0.125 3.425
0 0.25 3.425
0.125 0.25 3.425
0.25 0.25 3.425
0.375 0.25 3.425
0.5 0.25 3.425
0.625 0.25 3.425
0.75 0.25 3.425
0.875 0.25 3.425
1 0.25 3.425
1.125 0.25 3.425
1.25 0.25 3.425
1.375 0.25 3.425
1.5 0.25 3.425
1.625 0.25 3.425
1.75 0.25 3.425
1.875 0.25 3.425
2 0.25 3.425
2.125 0.25 3.425
2.25 0.25 3.425
2.375 0.25 3.425
2.5 0.25 3.425
2.625 0.25 3.425
2.75 0.25 3.425
2.875 0.25 3.425
3 0.25 3.425
3.125 0.25 3.425
3.25 0.25 3.425
3.375 0.25 3.425
3.5 0.25 3.425
3.625 0.25 3.425
3.75 0.25 3.425
3.875 0.25 3.425
4 0.25 3.425
0 0.375 3.425
0.125 0.375 3.425
0.25 0.375 3.425
0.375 0.375 3.425
0.5 0.375 3.425
0.625 0.375 3.425
0.75 0.375 3.425
0.875 0.375 3.425
1 0.375 3.425
1.125 0.375 3.425
1.25 0.375 3.425
1.375 0.375 3.425
1.5 0.375 3.425
1.625 0.375 3.425
1.75 0.375 3.425
1.875 0.375 3.425
2 0.375 3.425
2.125 0.375 3.425
2.25 0.375 3.425
2.375 0.375 3.425
2.5 0.375 3.425
2.625 0.375 3.425
2.75 0.375 3.425
2.875 0.375 3.425
3 0.375 3.425
3.125 0.375 3.425
3.25 0.375 3.425
3.375 0.375 3.425
3.5 0.375 3.425
3.625 0.375 3.425
3.75 0.375 3.425
3.875 0.375 3.425
4 0.375 3.425
0 0.5 3.425
0.125 0.5 3.425
0.25 0.5 3.425
0.375 0.5 3.425
0.5 0.5 3.425
0.625 0.5 3.425
0.75 0.5 3.425
0.875 0.5 3.425
1 0.5 3.425
1.125 0.5 3.425
1.25 0.5 3.425
1.375 0.5 3.425
1.5 0.5 3.425
1.625 0.5 3.425
1.75 0.5 3.425
1.875 0.5 3.425
2 0.5 3.425
2.125 0.5 3.425
2.25 0.5 3.425
2.375 0.5 3.425
2.5 0.5 3.425
2.625 0.5 3.425
2.75 0.5 3.425
2.875 0.5 3.425
3 0.5 3.425
3.125 0.5 3.425
3.25 0.5 3.425
3.375 0.5 3.425
3.5 0.5 3.425
3.625 0.5 3.425
3.75 0.5 3.425
3.875 0.5 3.425
4 0.5 3.425
0 0.625 3.425
0.125 0.625 3.425
0.25 0.625 3.425
0.375 0.625 3.425
0.5 0.625 3.425
0.625 0.625 3.425
0.75 0.625 3.425
0.875 0.625 3.425
1 0.625 3.425
1.125 0.625 3.425
1.25 0.625 3.425
1.375 0.625 3.425
1.5 0.625 3.425
1.625 0.625 3.425
1.75 0.625 3.425
1.875 0.625 3.425
2 0.625 3.425
2.125 0.625 3.425
2.25 0.625 3.425
2.375 0.625 3.425
2.5 0.625 3.425
2.625 0.625 3.425
2.75 0.625 3.425
2.875 0.625 3.425
3 0.625 3.425
3.125 0.625 3.425
3.25 0.625 3.425
3.375 0.625 3.425
3.5 0.625 3.425
3.625 0.625 3.425
3.75 0.625 3.425
3.875 0.625 3.425
4 0.625 3.425
0 0.75 3.425
0.125 0.75 3.425
0.25 0.75 3.425
0.375 0.75 3.425
0.5 0.75 3.425
0.625 0.75 3.425
0.75 0.75 3.425
0.875 0.75 3.425
1 0.75 3.425
1.125 0.75 3.425
1.25 0.75 3.425
1.375 0.75 3.425
1.5 0.75 3.425
1.625 0.75 3.425
1.75 0.75 3.425
1.875 0.75 3.425
2 0.75 3.425
2.125 0.75 3.425
2.25 0.75 3.425
2.375 0.75 3.425
2.5 0.75 3.425
2.625 0.75 3.425
2.75 0.75 3.425
2.875 0.75 3.425
3 0.75 3.425
3.125 0.75 3.425
3.25 0.75 3.425
3.375 0.75 3.425
3.5 0.75 3.425
3.625 0.75 3.425
3.75 0.75 3.425
3.875 0.75 3.425
4 0.75 3.425
0 0.875 3.425
0.125 0.875 3.425
0.25 0.875 3.425
0.375 0.875 3.425
0.5 0.875 3.425
0.625 0.875 3.425
0.75 0.875 3.425
0.875 0.875 3.425
1 0.875 3.425
1.125 0.875 3.425
1.25 0.875 3.425
1.375 0.875 3.425
1.5 0.875 3.425
1.625 0.875 3.425
1.75 0.875 3.425
1.875 0.875 3.425
2 0.875 3.425
2.125 0.875 3.425
2.25 0.875 3.425
2.375 0.875 3.425
2.5 0.875 3.425
2.625 0.875 3.425
2.75 0.875 3.425
2.875 0.875 3.425
3 0.875 3.425
3.125 0.875 3.425
3.25 0.875 3.425
3.375 0.875 3.425
3.5 0.875 3.425
3.625 0.875 3.425
3.75 0.875 3.425
3.875 0.875 3.425
4 0.875 3.425
0 1 3.425
0.125 1 3.425
0.25 1 3.425
0.375 1 3.425
0.5 1 3.425
0.625 1 3.425
0.75 1 3.425
0.875 1 3.425
1 1 3.425
1.125 1 3.425
1.25 1 3.425
1.375 1 3.425
1.5 1 3.425
1.625 1 3.425
1.75 1 3.425
1.875 1 3.425
2 1 3.425
2.125 1 3.425
2.25 1 3.425
2.375 1 3.425
2.5 1 3.425
2.625 1 3.425
2.75 1 3.425
2.875 1 3.425
3 1 3.425
3.125 1 3.425
3.25 1 3.425
3.375 1 3.425
3.5 1 3.425
3.625 1 3.425
3.75 1 3.425
3.875 1 3.425
4 1 3.425
0 0 3.55
0.125 0 3.55
0.25 0 3.55
0.375 0 3.55
0.5 0 3.55
0.625 0 3.55
0.75 0 3.55
0.875 0 3.55
1 0 3.55
1.125 0 3.55
1.25 0 3.55
1.375 0 3.55
1.5 0 3.55
1.625 0 3.55
1.75 0 3.55
1.875 0 3.55
2 0 3.55
2.125 0 3.55
2.25 0 3.55
2.375 0 3.55
2.5 0 3.55
2.625 0 3.55
2.75 0 3.55
2.875 0 3.55
3 0 3.55
3.125 0 3.55
3.25 0 3.55
3.375 0 3.55
3.5 0 3.55
3.625 0 3.55
3.75 0 3.55
3.875 0 3.55
4 0 3.55
0 0.125 3.55
0.125 0.125 3.55
0.25 0.125 3.55
0.375 0.125 3.55
0.5 0.125 3.55
0.625 0.125 3.55
0.75 0.125 3.55
0.875 0.125 3.55
1 0.125 3.55
1.125 0.125 3.55
1.25 0.125 3.55
1.375 0.125 3.55
1.5 0.125 3.55
1.625 0.125 3.55
1.75 0.125 3.55
1.875 0.125 3.55
2 0.125 3.55
2.125 0.125 3.55
2.25 0.125 3.55
2.375 0.125 3.55
2.5 0.125 3.55
2.625 0.125 3.55
2.75 0.125 3.55
2.875 0.125 3.55
3 0.125 3.55
3.125 0.125 3.55
3.25 0.125 3.55
3.375 0.125 3.55
3.5 0.125 3.55
3.625 0.125 3.55
3.75 0.125 3.55
3.875 0.125 3.55
4 0.125 3.55
0 0.25 3.55
0.125 0.25 3.55
0.25 0.25 3.55
0.375 0.25 3.55
0.5 0.25 3.55
0.625 0.25 3.55
0.75 0.25 3.55
0.875 0.25 3.55
1 0.25 3.55
1.125 0.25 3.55
1.25 0.25 3.55
1.375 0.25 3.55
1.5 0.25 3.55
1.625 0.25 3.55
1.75 0.25 3.55
1.875 0.25 3.55
2 0.25 3.55
2.125 0.25 3.55
2.25 0.25 3.55
2.375 0.25 3.55
2.5 0.25 3.55
2.625 0.25 3.55
[...]
POINT_DATA 18785
SCALARS weights float 1
LOOKUP_TABLE default
0.072338 0.144676 0.144676 0.144676 0.144676 0.144676 0.144676 0.144676 0.144676 0.144676 0.144676 0.144676 0.144676 0.144676 0.144676 0.144676 0.144676 0.144676 0.144676 0.144676 0.144676 0.144676 0.144676 0.144676 0.144676 0.144676 0.144676 0.144676 0.144676 0.144676 0.144676 0.144676 0.072338 0.144676 0.289352 0.289352 0.289352 0.289352 0.289352 0.289352 0.289352 0.289352 0.289352 0.289352 0.289352 0.289352 0.289352 0.289352 0.289352 0.289352 0.289352 0.289352 0.289352 0.289352 0.289352 0.289352 0.289352 0.289352 0.289352 0.289352 0.289352 0.289352 0.289352 0.289352 0.289352 0.144676 0.144676 0.289352 0.289352 0.289352 0.289352 0.289352 0.289352 0.289352 0.289352 0.289352 0.289352 0.289352 0.289352 0.289352 0.289352 0.289352 0.289352 0.289352 0.289352 0.289352 0.289352 0.289352 0.289352 0.289352 0.289352 0.289352 0.289352 0.289352 0.289352 0.289352 0.289352 0.289352 0.144676 0.144676 0.289352 0.289352 0.289352 0.289352 0.289352 0.289352 0.289352 0.289352 0.289352 0.289352 0.289352 0.289352 0.289352 0.289352 0.289352 0.289352 0.289352 0.289352 0.289352 0.289352 0.289352 0.289352 0.289352 0.289352 0.289352 0.289352 0.289352 0.289352 0.289352 0.289352 0.289352 0.144676 0.144676 0.289352 0.289352 0.289352 0.289352 0.289352 0.289352 0.289352 0.289352 0.289352 0.289352 0.289352 0.289352 0.289352 0.289352 0.289352 0.289352 0.289352 0.289352 0.289352 0.289352 0.289352 0.289352 0.289352 0.289352 0.289352 0.289352 0.289352 0.289352 0.289352 0.289352 0.289352 0.144676 0.144676 0.289352 0.289352 0.289352 0.289352 0.289352 0.289352 0.289352 0.289352 0.289352 0.289352 0.289352 0.289352 0.289352 0.289352 0.289352 0.289352 0.289352 0.289352 0.289352 0.289352 0.289352 0.289352 0.289352 0.289352 0.289352 0.289352 0.289352 0.289352 0.289352 0.289352 0.289352 0.144676 0.144676 0.289352 0.289352 0.289352 0.289352 0.289352 0.289352 0.289352 0.289352 0.289352 0.289352 0.289352 0.289352 0.289352 0.289352 0.289352 0.289352 0.289352 0.289352 0.289352 0.289352 0.289352 0.289352 0.289352 0.289352 0.289352 0.289352 0.289352 0.289352 0.289352 0.289352 0.289352 0.144676 0.144676 0.289352 0.289352 0.289352 0.289352 0.289352 0.289352 0.289352 0.289352 0.289352 0.289352 0.289352 0.289352 0.289352 0.289352 0.289352 0.289352 0.289352 0.289352 0.289352 0.289352 0.289352 0.289352 0.289352 0.289352 0.289352 0.289352 0.289352 0.289352 0.289352 0.289352 0.289352 0.144676 0.072338 0.144676 0.144676 0.144676 0.144676 0.144676 0.144676 0.144676 0.144676 0.144676 0.144676 0.144676 0.144676 0.144676 0.144676 0.144676 0.144676 0.144676 0.144676 0.144676 0.144676 0.144676 0.144676 0.144676 0.144676 0.144676 0.144676 0.144676 0.144676 0.144676 0.144676 0.144676 0.072338 0.144676 0.289352 0.289352 0.289352 0.289352 0.289352 0.289352 0.289352 0.289352 0.289352 0.289352 0.289352 0.289352 0.289352 0.289352 0.289352 0.289352 0.289352 0.289352 0.289352 0.289352 0.289352 0.289352 0.289352 0.289352 0.289352 0.289352 0.289352 0.289352 0.289352 0.289352 0.289352 0.144676 0.289352 0.578704 0.578704 0.578704 0.578704 0.578704 0.578704 0.578704 0.578704 0.578704 0.578704 0.578704 0.578704 0.578704 0.578704 0.578704 0.578704 0.578704 0.578704 0.578703 0.578704 0.578704 0.578704 0.578704 0.578704 0.578703 0.578704 0.578704 0.578703 0.578703 0.578704 0.578704 0.289352 0.289352 0.578704 0.578704 0.578704 0.578704 0.578704 0.578704 0.578704 0.578704 0.578704 0.578704 0.578704 0.578704 0.578704 0.578704 0.578704 0.578704 0.578704 0.578704 0.578703 0.578704 0.578704 0.578704 0.578704 0.578704 0.578703 0.578704 0.578704 0.578703 0.578703 0.578704 0.578704 0.289352 0.289352 0.578704 0.578704 0.578704 0.578704 0.578704 0.578704 0.578704 0.578704 0.578704 0.578704 0.578704 0.578704 0.578704 0.578704 0.578704 0.578704 0.578704 0.578704 0.578703 0.578704 0.578704 0.578704 0.578704 0.578704 0.578703 0.578704 0.578704 0.578703 0.578703 0.578704 0.578704 0.289352 0.289352 0.578704 0.578704 0.578704 0.578704 0.578704 0.578704 0.578704 0.578704 0.578704 0.578704 0.578704 0.578704 0.578704 0.578704 0.578704 0.578704 0.578704 0.578703 0.578703 0.578704 0.578704 0.578704 0.578704 0.578704 0.578703 0.578704 0.578704 0.578703 0.578703 0.578704 0.578704 0.289352 0.289352 0.578704 0.578704 0.578704 0.578704 0.578704 0.578704 0.578704 0.578704 0.578704 0.578704 0.578704 0.578704 0.578704 0.578704 0.578704 0.578704 0.578704 0.578703 0.578703 0.578704 0.578704 0.578704 0.578704 0.578704 0.578703 0.578704 0.578704 0.578703 0.578703 0.578704 0.578704 0.289352 0.289352 0.578704 0.578704 0.578704 0.578704 0.578704 0.578704 0.578704 0.578704 0.578704 0.578704 0.578704 0.578704 0.578704 0.578704 0.578704 0.578704 0.578704 0.578704 0.578703 0.578704 0.578704 0.578704 0.578704 0.578704 0.578703 0.578704 0.578704 0.578703 0.578703 0.578704 0.578704 0.289352 0.289352 0.578704 0.578704 0.578704 0.578704 0.578704 0.578704 0.578704 0.578704 0.578704 0.578704 0.578704 0.578704 0.578704 0.578704 0.578704 0.578704 0.578704 0.578704 0.578703 0.578704 0.578704 0.578704 0.578704 0.578704 0.578703 0.578704 0.578704 0.578703 0.578703 0.578703 0.578704 0.289352 0.144676 0.289352 0.289352 0.289352 0.289352 0.289352 0.289352 0.289352 0.289352 0.289352 0.289352 0.289352 0.289352 0.289352 0.289352 0.289352 0.289352 0.289352 0.289352 0.289352 0.289352 0.289352 0.289352 0.289352 0.289352 0.289352 0.289352 0.289352 0.289351 0.289352 0.289352 0.289352 0.144676 0.144676 0.289352 0.289352 0.289352 0.289352 0.289352 0.289352 0.289352 0.289352 0.289352 0.289352 0.289352 0.289352 0.289352 0.289352 0.289352 0.289352 0.289352 0.289352 0.289352 0.289352 0.289352 0.289352 0.289352 0.289352 0.289352 0.289352 0.289352 0.289351 0.289352 0.289352 0.289352 0.144676 0.289352 0.578704 0.578704 0.578704 0.578704 0.578704 0.578704 0.578704 0.578704 0.578704 0.578703 0.578703 0.578704 0.578704 0.578703 0.578703 0.578704 0.578704 0.578703 0.578703 0.578703 0.578704 0.578703 0.578704 0.578703 0.578703 0.578704 0.578704 0.578703 0.578703 0.578703 0.578704 0.289352 0.289352 0.578704 0.578704 0.578704 0.578704 0.578704 0.578704 0.578704 0.578704 0.578704 0.578703 0.578703 0.578704 0.578704 0.578703 0.578703 0.578704 0.578703 0.578703 0.578703 0.578703 0.578704 0.578703 0.578704 0.578703 0.578703 0.578704 0.578704 0.578703 0.578703 0.578703 0.578704 0.289352 0.289352 0.578704 0.578704 0.578704 0.578703 0.578704 0.578704 0.578704 0.578704 0.578704 0.578703 0.578703 0.578704 0.578704 0.578703 0.578703 0.578704 0.578703 0.578703 0.578703 0.578703 0.578704 0.578703 0.578703 0.578703 0.578703 0.578704 0.578704 0.578703 0.578703 0.578703 0.578704 0.289352 0.289352 0.578704 0.578704 0.578704 0.578703 0.578704 0.578703 0.578703 0.578703 0.578703 0.578703 0.578703 0.578703 0.578704 0.578703 0.578703 0.578704 0.578703 0.578703 0.578703 0.578703 0.578704 0.578703 0.578703 0.578703 0.578703 0.578704 0.578704 0.578703 0.578703 0.578703 0.578703 0.289352 0.289352 0.578704 0.578704 0.578704 0.578703 0.578704 0.578704 0.578703 0.578703 0.578703 0.578703 0.578703 0.578704 0.578704 0.578704 0.578703 0.578704 0.578703 0.578703 0.578703 0.578703 0.578704 0.578703 0.578703 0.578703 0.578703 0.578704 0.578704 0.578703 0.578703 0.578703 0.578704 0.289352 0.289352 0.578704 0.578704 0.578704 0.578703 0.578704 0.578704 0.578704 0.578704 0.578704 0.578703 0.578704 0.578704 0.578704 0.578704 0.578704 0.578704 0.578704 0.578703 0.578703 0.578704 0.578704 0.578703 0.578704 0.578703 0.578703 0.578704 0.578704 0.578703 0.578703 0.578703 0.578704 0.289352 0.289352 0.578704 0.578704 0.578704 0.578703 0.578704 0.578704 0.578704 0.578704 0.578704 0.578703 0.578703 0.578704 0.578704 0.578703 0.578703 0.578704 0.578704 0.578703 0.578703 0.578703 0.578704 0.578703 0.578703 0.578703 0.578703 0.578704 0.578704 0.578703 0.578703 0.578703 0.578703 0.289352 0.144676 0.289352 0.289352 0.289352 0.289352 0.289352 0.289352 0.289352 0.289352 0.289352 0.289352 0.289352 0.289352 0.289352 0.289352 0.289352 0.289352 0.289352 0.289352 0.289352 0.289352 0.289352 0.289352 0.289352 0.289352 0.289352 0.289352 0.289352 0.289351 0.289352 0.289352 0.289352 0.144676 0.144676 0.289352 0.289352 0.289352 0.289352 0.289352 0.289352 0.289352 0.289352 0.289352 0.289352 0.289352 0.289352 0.289352 0.289352 0.289352 0.289352 0.289352 0.289352 0.289352 0.289352 0.289352 0.289352 0.289352 0.289352 0.289352 0.289352 0.289352 0.289351 0.289352 0.289352 0.289352 0.144676 0.289352 0.578704 0.578704 0.578704 0.578704 0.578704 0.578704 0.578704 0.578704 0.578704 0.578703 0.578704 0.578704 0.578704 0.578704 0.578704 0.578704 0.578703 0.578703 0.578703 0.578704 0.578704 0.578703 0.578704 0.578704 0.578703 0.578704 0.578704 0.578703 0.578703 0.578703 0.578704 0.289352 0.289352 0.578704 0.578704 0.578704 0.578704 0.578704 0.578704 0.578704 0.578704 0.578704 0.578703 0.578704 0.578704 0.578704 0.578704 0.578704 0.578704 0.578703 0.578703 0.578703 0.578703 0.578704 0.578703 0.578704 0.578704 0.578703 0.578704 0.578704 0.578703 0.578703 0.578703 0.578704 0.289352 0.289352 0.578704 0.578704 0.578704 0.578704 0.578704 0.578704 0.578704 0.578704 0.578704 0.578703 0.578704 0.578704 0.578704 0.578704 0.578704 0.578704 0.578703 0.578703 0.578703 0.578703 0.578704 0.578703 0.578704 0.578704 0.578703 0.578704 0.578704 0.578703 0.578703 0.578703 0.578704 0.289352 0.289352 0.578704 0.578704 0.578704 0.578704 0.578704 0.578704 0.578704 0.578704 0.578703 0.578703 0.578703 0.578703 0.578704 0.578704 0.578704 0.578704 0.578703 0.578703 0.578703 0.578703 0.578704 0.578703 0.578703 0.578703 0.578703 0.578704 0.578704 0.578703 0.578703 0.578703 0.578703 0.289352 0.289352 0.578704 0.578704 0.578704 0.578704 0.578704 0.578704 0.578704 0.578704 0.578704 0.578703 0.578704 0.578704 0.578704 0.578704 0.578703 0.578704 0.578703 0.578703 0.578703 0.578703 0.578704 0.578703 0.578704 0.578703 0.578703 0.578704 0.578704 0.578703 0.578703 0.578703 0.578704 0.289352 0.289352 0.578704 0.578704 0.578704 0.578704 0.578704 0.578704 0.578704 0.578704 0.578704 0.578703 0.578704 0.578704 0.578704 0.578704 0.578704 0.578704 0.578704 0.578703 0.578703 0.578703 0.578704 0.578703 0.578704 0.578704 0.578703 0.578704 0.578704 0.578703 0.578703 0.578703 0.578704 0.289352 0.289352 0.578704 0.578704 0.578704 0.578704 0.578704 0.578704 0.578704 0.578704 0.578704 0.578703 0.578703 0.578704 0.578704 0.578704 0.578704 0.578704 0.578703 0.578703 0.578703 0.578704 0.578704 0.578703 0.578704 0.578703 0.578703 0.578704 0.578704 0.578703 0.578703 0.578703 0.578704 0.289352 0.144676 0.289352 0.289352 0.289352 0.289352 0.289352 0.289352 0.289352 0.289352 0.289352 0.289352 0.289352 0.289352 0.289352 0.289352 0.289352 0.289352 0.289352 0.289352 0.289352 0.289352 0.289352 0.289352 0.289352 0.289352 0.289352 0.289352 0.289352 0.289351 0.289352 0.289352 0.289352 0.144676 0.144676 0.289352 0.289352 0.289352 0.289352 0.289352 0.289352 0.289352 0.289352 0.289352 0.289352 0.289352 0.289352 0.289352 0.289352 0.289352 0.289352 0.289352 0.289352 0.289352 0.289352 0.289352 0.289352 0.289352 0.289352 0.289352 0.289352 0.289352 0.289352 0.289352 0.289352 0.289352 0.144676 0.289352 0.578704 0.578704 0.578704 0.578704 0.578704 0.578704 0.578704 0.578704 0.578704 0.578703 0.578704 0.578704 0.578704 0.578704 0.578704 0.578704 0.578704 0.578703 0.578703 0.578704 0.578704 0.578704 0.578704 0.578704 0.578703 0.578704 0.578704 0.578703 0.578703 0.578704 0.578704 0.289352 0.289352 0.578704 0.578704 0.578704 0.578704 0.578704 0.578704 0.578704 0.578704 0.578704 0.578703 0.578704 0.578704 0.578704 0.578704 0.578704 0.578704 0.578704 0.578703 0.578703 0.578704 0.578704 0.578704 0.578704 0.578704 0.578703 0.578704 0.578704 0.578703 0.578703 0.578704 0.578704 0.289352 0.289352 0.578704 0.578704 0.578704 0.578704 0.578704 0.578704 0.578704 0.578704 0.578704 0.578703 0.578704 0.578704 0.578704 0.578704 0.578704 0.578704 0.578704 0.578703 0.578703 0.578704 0.578704 0.578703 0.578704 0.578704 0.578703 0.578704 0.578704 0.578703 0.578703 0.578703 0.578704 0.289352 0.289352 0.578704 0.578704 0.578704 0.578704 0.578704 0.578704 0.578704 0.578704 0.578704 0.578703 0.578704 0.578704 0.578704 0.578704 0.578704 0.578704 0.578704 0.578703 0.578703 0.578704 0.578704 0.578703 0.578704 0.578703 0.578703 0.578704 0.578704 0.578703 0.578703 0.578703 0.578704 0.289352 0.289352 0.578704 0.578704 0.578704 0.578704 0.578704 0.578704 0.578704 0.578704 0.578704 0.578703 0.578704 0.578704 0.578704 0.578704 0.578704 0.578704 0.578704 0.578703 0.578703 0.578704 0.578704 0.578703 0.578704 0.578704 0.578703 0.578704 0.578704 0.578703 0.578703 0.578703 0.578704 0.289352 0.289352 0.578704 0.578704 0.578704 0.578704 0.578704 0.578704 0.578704 0.578704 0.578704 0.578704 0.578704 0.578704 0.578704 0.578704 0.578704 0.578704 0.578704 0.578703 0.578703 0.578704 0.578704 0.578704 0.578704 0.578704 0.578703 0.578704 0.578704 0.578703 0.578703 0.578704 0.578704 0.289352 0.289352 0.578704 0.578704 0.578704 0.578704 0.578704 0.578704 0.578704 0.578704 0.578704 0.578703 0.578704 0.578704 0.578704 0.578704 0.578704 0.578704 0.578704 0.578703 0.578703 0.578704 0.578704 0.578703 0.578704 0.578704 0.578703 0.578704 0.578704 0.578703 0.578703 0.578704 0.578704 0.289352 0.144676 0.289352 0.289352 0.289352 0.289352 0.289352 0.289352 0.289352 0.289352 0.289352 0.289352 0.289352 0.289352 0.289352 0.289352 0.289352 0.289352 0.289352 0.289352 0.289352 0.289352 0.289352 0.289352 0.289352 0.289352 0.289352 0.289352 0.289352 0.289351 0.289352 0.289352 0.289352 0.144676 0.144676 0.289352 0.289352 0.289352 0.289352 0.289352 0.289352 0.289352 0.289352 0.289352 0.289352 0.289352 0.289352 0.289352 0.289352 0.289352 0.289352 0.289352 0.289352 0.289352 0.289352 0.289352 0.289352 0.289352 0.289352 0.289352 0.289352 0.289352 0.289352 0.289352 0.289352 0.289352 0.144676 0.289352 0.578704 0.578704 0.578704 0.578704 0.578704 0.578704 0.578704 0.578704 0.578704 0.578704 0.578704 0.578704 0.578704 0.578704 0.578704 0.578704 0.578704 0.578704 0.578704 0.578704 0.578704 0.578704 0.578704 0.578704 0.578704 0.578704 0.578704 0.578703 0.578704 0.578704 0.578704 0.289352 0.289352 0.578704 0.578704 0.578704 0.578704 0.578704 0.578704 0.578704 0.578704 0.578704 0.578704 0.578704 0.578704 0.578704 0.578704 0.578704 0.578704 0.578704 0.578704 0.578704 0.578704 0.578704 0.578704 0.578704 0.578704 0.578704 0.578704 0.578704 0.578703 0.578704 0.578704 0.578704 0.289352 0.289352 0.578704 0.578704 0.578704 0.578704 0.578704 0.578704 0.578704 0.578704 0.578704 0.578704 0.578704 0.578704 0.578704 0.578704 0.578704 0.578704 0.578704 0.578704 0.578704 0.578704 0.578704 0.578704 0.578704 0.578704 0.578704 0.578704 0.578704 0.578703 0.578704 0.578704 0.578704 0.289352 0.289352 0.578704 0.578704 0.578704 0.578704 0.578704 0.578704 0.578704 0.578704 0.578704 0.578704 0.578704 0.578704 0.578704 0.578704 0.578704 0.578704 0.578704 0.578704 0.578704 0.578704 0.578704 0.578704 0.578704 0.578704 0.578704 0.578704 0.578704 0.578703 0.578704 0.578704 0.578704 0.289352 0.289352 0.578704 0.578704 0.578704 0.578704 0.578704 0.578704 0.578704 0.578704 0.578704 0.578704 0.578704 0.578704 0.578704 0.578704 0.578704 0.578704 0.578704 0.578704 0.578704 0.578704 0.578704 0.578704 0.578704 0.578704 0.578704 0.578704 0.578704 0.578703 0.578704 0.578704 0.578704 0.289352 0.289352 0.578704 0.578704 0.578704 0.578704 0.578704 0.578704 0.578704 0.578704 0.578704 0.578704 0.578704 0.578704 0.578704 0.578704 0.578704 0.578704 0.578704 0.578704 0.578704 0.578704 0.578704 0.578704 0.578704 0.578704 0.578704 0.578704 0.578704 0.578703 0.578704 0.578704 0.578704 0.289352 0.289352 0.578704 0.578704 0.578704 0.578704 0.578704 0.578704 0.578704 0.578704 0.578704 0.578704 0.578704 0.578704 0.578704 0.578704 0.578704 0.578704 0.578704 0.578704 0.578704 0.578704 0.578704 0.578704 0.578704 0.578704 0.578704 0.578704 0.578704 0.578703 0.578704 0.578704 0.578704 0.289352 0.144676 0.289352 0.289352 0.289352 0.289352 0.289352 0.289352 0.289352 0.289352 0.289352 0.289352 0.289352 0.289352 0.289352 0.289352 0.289352 0.289352 0.289352 0.289352 0.289352 0.289352 0.289352 0.289352 0.289352 0.289352 0.289352 0.289352 0.289352 0.289352 0.289352 0.289352 0.289352 0.144676 0.144676 0.289352 0.289352 0.289352 0.289352 0.289352 0.289352 0.289352 0.289352 0.289352 0.289352 0.289352 0.289352 0.289352 0.289352 0.289352 0.289352 0.289352 0.289352 0.289352 0.289352 0.289352 0.289352 0.289352 0.289352 0.289352 0.289352 0.289352 0.289352 0.289352 0.289352 0.289352 0.144676 0.289352 0.578704 0.578704 0.578704 0.578704 0.578704 0.578704 0.578704 0.578704 0.578704 0.578704 0.578704 0.578704 0.578704 0.578704 0.578704 0.578704 0.578704 0.578704 0.578704 0.578704 0.578704 0.578704 0.578704 0.578704 0.578704 0.578705 0.578704 0.578704 0.578704 0.578704 0.578704 0.289352 0.289352 0.578704 0.578704 0.578704 0.578704 0.578704 0.578704 0.578704 0.578704 0.578704 0.578704 0.578704 0.578704 0.578704 0.578704 0.578704 0.578704 0.578704 0.578704 0.578704 0.578704 0.578704 0.578704 0.578704 0.578704 0.578704 0.578705 0.578704 0.578704 0.578704 0.578704 0.578704 0.289352 0.289352 0.578704 0.578704 0.578704 0.578704 0.578704 0.578704 0.578704 0.578704 0.578704 0.578704 0.578704 0.578704 0.578704 0.578704 0.578704 0.578704 0.578704 0.578704 0.578704 0.578704 0.578704 0.578704 0.578704 0.578704 0.578704 0.578704 0.578704 0.578703 0.578704 0.578704 0.578704 0.289352 0.289352 0.578704 0.578704 0.578704 0.578704 0.578704 0.578704 0.578704 0.578704 0.578704 0.578704 0.578704 0.578704 0.578704 0.578704 0.578704 0.578704 0.578704 0.578704 0.578704 0.578704 0.578704 0.578704 0.578704 0.578704 0.578704 0.578704 0.578704 0.578703 0.578704 0.578704 0.578704 0.289352 0.289352 0.578704 0.578704 0.578704 0.578704 0.578704 0.578704 0.578704 0.578704 0.578704 0.578704 0.578704 0.578704 0.578704 0.578704 0.578704 0.578704 0.578704 0.578704 0.578704 0.578704 0.578704 0.578704 0.578704 0.578704 0.578704 0.578704 0.578704 0.578703 0.578704 0.578704 0.578704 0.289352 0.289352 0.578704 0.578704 0.578704 0.578704 0.578704 0.578704 0.578704 0.578704 0.578704 0.578704 0.578704 0.578704 0.578704 0.578704 0.578704 0.578704 0.578704 0.578704 0.578704 0.578704 0.578704 0.578704 0.578704 0.578704 0.578704 0.578705 0.578704 0.578704 0.578704 0.578704 0.578704 0.289352 0.289352 0.578704 0.578704 0.578704 0.578704 0.578704 0.578704 0.578704 0.578704 0.578704 0.578704 0.578704 0.578704 0.578704 0.578704 0.578704 0.578704 0.578704 0.578704 0.578704 0.578704 0.578704 0.578704 0.578704 0.578704 0.578704 0.578704 0.578704 0.578703 0.578704 0.578704 0.578704 0.289352 0.144676 0.289352 0.289352 0.289352 0.289352 0.289352 0.289352 0.289352 0.289352 0.289352 0.289352 0.289352 0.289352 0.289352 0.289352 0.289352 0.289352 0.289352 0.289352 0.289352 0.289352 0.289352 0.289352 0.289352 0.289352 0.289352 0.289352 0.289352 0.289352 0.289352 0.289352 0.289352 0.144676 0.144676 0.289352 0.289352 0.289352 0.289352 0.289352 0.289352 0.289352 0.289352 0.289352 0.289352 0.289352 0.289352 0.289352 0.289352 0.289352 0.289352 0.289352 0.289352 0.289352 0.289352 0.289352 0.289352 0.289352 0.289352 0.289352 0.289352 0.289352 0.289351 0.289352 0.289352 0.289352 0.144676 0.289352 0.578704 0.578704 0.578703 0.578703 0.578703 0.578703 0.578703 0.578703 0.578703 0.578703 0.578703 0.578703 0.578704 0.578703 0.578703 0.578704 0.578703 0.578703 0.578703 0.578703 0.578704 0.578703 0.578703 0.578703 0.578703 0.578704 0.578704 0.578703 0.578703 0.578703 0.578703 0.289352 0.289352 0.578703 0.578703 0.578703 0.578703 0.578703 0.578703 0.578703 0.578703 0.578703 0.578703 0.578703 0.578703 0.578704 0.578703 0.578703 0.578704 0.578703 0.578703 0.578703 0.578703 0.578704 0.578703 0.578703 0.578703 0.578703 0.578704 0.578704 0.578703 0.578703 0.578703 0.578703 0.289352 0.289352 0.578704 0.578704 0.578703 0.578703 0.578703 0.578703 0.578703 0.578703 0.578703 0.578703 0.578703 0.578703 0.578703 0.578703 0.578703 0.578704 0.578703 0.578703 0.578703 0.578703 0.578704 0.578703 0.578703 0.578703 0.578703 0.578704 0.578704 0.578703 0.578703 0.578703 0.578703 0.289352 0.289352 0.578703 0.578703 0.578703 0.5