# vtk DataFile Version 5.1
vtk output
ASCII

DATASET UNSTRUCTURED_GRID
POINTS 18785 float
0 0 -1.1
0.125 0 -1.1
0.25 0 -1.1
0.375 0 -1.1
0.5 0 -1.1
0.625 0 -1.1
0.75 0 -1.1
0.875 0 -1.1
1 0 -1.1
1.125 0 -1.1
1.25 0 -1.1
1.375 0 -1.1
1.5 0 -1.1
1.625 0 -1.1
1.75 0 -1.1
1.875 0 -1.1
2 0 -1.1
2.125 0 -1.1
2.25 0 -1.1
2.375 0 -1.1
2.5 0 -1.1
2.625 0 -1.1
2.75 0 -1.1
2.875 0 -1.1
3 0 -1.1
3.125 0 -1.1
3.25 0 -1.1
3.375 0 -1.1
3.5 0 -1.1
3.625 0 -1.1
3.75 0 -1.1
3.875 0 -1.1
4 0 -1.1
0 0.125 -1.1
0.125 0.125 -1.1
0.25 0.125 -1.1
0.375 0.125 -1.1
0.5 0.125 -1.1
0.625 0.125 -1.1
0.75 0.125 -1.1
0.875 0.125 -1.1
1 0.125 -1.1
1.125 0.125 -1.1
1.25 0.125 -1.1
1.375 0.125 -1.1
1.5 0.125 -1.1
1.625 0.125 -1.1
1.75 0.125 -1.1
1.875 0.125 -1.1
2 0.125 -1.1
2.125 0.125 -1.1
2.25 0.125 -1.1
2.375 0.125 -1.1
2.5 0.125 -1.1
2.625 0.125 -1.1
2.75 0.125 -1.1
2.875 0.125 -1.1
3 0.125 -1.1
3.125 0.125 -1.1
3.25 0.125 -1.1
3.375 0.125 -1.1
3.5 0.125 -1.1
3.625 0.125 -1.1
3.75 0.125 -1.1
3.875 0.125 -1.1
4 0.125 -1.1
0 0.25 -1.1
0.125 0.25 -1.1
0.25 0.25 -1.1
0.375 0.25 -1.1
0.5 0.25 -1.1
0.625 0.25 -1.1
0.75 0.25 -1.1
0.875 0.25 -1.1
1 0.25 -1.1
1.125 0.25 -1.1
1.25 0.25 -1.1
1.375 0.25 -1.1
1.5 0.25 -1.1
1.625 0.25 -1.1
1.75 0.25 -1.1
1.875 0.25 -1.1
2 0.25 -1.1
2.125 0.25 -1.1
2.25 0.25 -1.1
2.375 0.25 -1.1
2.5 0.25 -1.1
2.625 0.25 -1.1
2.75 0.25 -1.1
2.875 0.25 -1.1
3 0.25 -1.1
3.125 0.25 -1.1
3.25 0.25 -1.1
3.375 0.25 -1.1
3.5 0.25 -1.1
3.625 0.25 -1.1
3.75 0.25 -1.1
3.875 0.25 -1.1
4 0.25 -1.1
0 0.375 -1.1
0.125 0.375 -1.1
0.25 0.375 -1.1
0.375 0.375 -1.1
0.5 0.375 -1.1
0.625 0.375 -1.1
0.75 0.375 -1.1
0.875 0.375 -1.1
1 0.375 -1.1
1.125 0.375 -1.1
1.25 0.375 -1.1
1.375 0.375 -1.1
1.5 0.375 -1.1
1.625 0.375 -1.1
1.75 0.375 -1.1
1.875 0.375 -1.1
2 0.375 -1.1
2.125 0.375 -1.1
2.25 0.375 -1.1
2.375 0.375 -1.1
2.5 0.375 -1.1
2.625 0.375 -1.1
2.75 0.375 -1.1
2.875 0.375 -1.1
3 0.375 -1.1
3.125 0.375 -1.1
3.25 0.375 -1.1
3.375 0.375 -1.1
3.5 0.375 -1.1
3.625 0.375 -1.1
3.75 0.375 -1.1
3.875 0.375 -1.1
4 0.375 -1.1
0 0.5 -1.1
0.125 0.5 -1.1
0.25 0.5 -1.1
0.375 0.5 -1.1
0.5 0.5 -1.1
0.625 0.5 -1.1
0.75 0.5 -1.1
0.875 0.5 -1.1
1 0.5 -1.1
1.125 0.5 -1.1
1.25 0.5 -1.1
1.375 0.5 -1.1
1.5 0.5 -1.1
1.625 0.5 -1.1
1.75 0.5 -1.1
1.875 0.5 -1.1
2 0.5 -1.1
2.125 0.5 -1.1
2.25 0.5 -1.1
2.375 0.5 -1.1
2.5 0.5 -1.1
2.625 0.5 -1.1
2.75 0.5 -1.1
2.875 0.5 -1.1
3 0.5 -1.1
3.125 0.5 -1.1
3.25 0.5 -1.1
3.375 0.5 -1.1
3.5 0.5 -1.1
3.625 0.5 -1.1
3.75 0.5 -1.1
3.875 0.5 -1.1
4 0.5 -1.1
0 0.625 -1.1
0.125 0.625 -1.1
0.25 0.625 -1.1
0.375 0.625 -1.1
0.5 0.625 -1.1
0.625 0.625 -1.1
0.75 0.625 -1.1
0.875 0.625 -1.1
1 0.625 -1.1
1.125 0.625 -1.1
1.25 0.625 -1.1
1.375 0.625 -1.1
1.5 0.625 -1.1
1.625 0.625 -1.1
1.75 0.625 -1.1
1.875 0.625 -1.1
2 0.625 -1.1
2.125 0.625 -1.1
2.25 0.625 -1.1
2.375 0.625 -1.1
2.5 0.625 -1.1
2.625 0.625 -1.1
2.75 0.625 -1.1
2.875 0.625 -1.1
3 0.625 -1.1
3.125 0.625 -1.1
3.25 0.625 -1.1
3.375 0.625 -1.1
3.5 0.625 -1.1
3.625 0.625 -1.1
3.75 0.625 -1.1
3.875 0.625 -1.1
4 0.625 -1.1
0 0.75 -1.1
0.125 0.75 -1.1
0.25 0.75 -1.1
0.375 0.75 -1.1
0.5 0.75 -1.1
0.625 0.75 -1.1
0.75 0.75 -1.1
0.875 0.75 -1.1
1 0.75 -1.1
1.125 0.75 -1.1
1.25 0.75 -1.1
1.375 0.75 -1.1
1.5 0.75 -1.1
1.625 0.75 -1.1
1.75 0.75 -1.1
1.875 0.75 -1.1
2 0.75 -1.1
2.125 0.75 -1.1
2.25 0.75 -1.1
2.375 0.75 -1.1
2.5 0.75 -1.1
2.625 0.75 -1.1
2.75 0.75 -1.1
2.875 0.75 -1.1
3 0.75 -1.1
3.125 0.75 -1.1
3.25 0.75 -1.1
3.375 0.75 -1.1
3.5 0.75 -1.1
3.625 0.75 -1.1
3.75 0.75 -1.1
3.875 0.75 -1.1
4 0.75 -1.1
0 0.875 -1.1
0.125 0.875 -1.1
0.25 0.875 -1.1
0.375 0.875 -1.1
0.5 0.875 -1.1
0.625 0.875 -1.1
0.75 0.875 -1.1
0.875 0.875 -1.1
1 0.875 -1.1
1.125 0.875 -1.1
1.25 0.875 -1.1
1.375 0.875 -1.1
1.5 0.875 -1.1
1.625 0.875 -1.1
1.75 0.875 -1.1
1.875 0.875 -1.1
2 0.875 -1.1
2.125 0.875 -1.1
2.25 0.875 -1.1
2.375 0.875 -1.1
2.5 0.875 -1.1
2.625 0.875 -1.1
2.75 0.875 -1.1
2.875 0.875 -1.1
3 0.875 -1.1
3.125 0.875 -1.1
3.25 0.875 -1.1
3.375 0.875 -1.1
3.5 0.875 -1.1
3.625 0.875 -1.1
3.75 0.875 -1.1
3.875 0.875 -1.1
4 0.875 -1.1
0 1 -1.1
0.125 1 -1.1
0.25 1 -1.1
0.375 1 -1.1
0.5 1 -1.1
0.625 1 -1.1
0.75 1 -1.1
0.875 1 -1.1
1 1 -1.1
1.125 1 -1.1
1.25 1 -1.1
1.375 1 -1.1
1.5 1 -1.1
1.625 1 -1.1
1.75 1 -1.1
1.875 1 -1.1
2 1 -1.1
2.125 1 -1.1
2.25 1 -1.1
2.375 1 -1.1
2.5 1 -1.1
2.625 1 -1.1
2.75 1 -1.1
2.875 1 -1.1
3 1 -1.1
3.125 1 -1.1
3.25 1 -1.1
3.375 1 -1.1
3.5 1 -1.1
3.625 1 -1.1
3.75 1 -1.1
3.875 1 -1.1
4 1 -1.1
0 0 -0.975
0.125 0 -0.975
0.25 0 -0.975
0.375 0 -0.975
0.5 0 -0.975
0.625 0 -0.975
0.75 0 -0.975
0.875 0 -0.975
1 0 -0.975
1.125 0 -0.975
1.25 0 -0.975
1.375 0 -0.975
1.5 0 -0.975
1.625 0 -0.975
1.75 0 -0.975
1.875 0 -0.975
2 0 -0.975
2.125 0 -0.975
2.25 0 -0.975
2.375 0 -0.975
2.5 0 -0.975
2.625 0 -0.975
2.75 0 -0.975
2.875 0 -0.975
3 0 -0.975
3.125 0 -0.975
3.25 0 -0.975
3.375 0 -0.975
3.5 0 -0.975
3.625 0 -0.975
3.75 0 -0.975
3.875 0 -0.975
4 0 -0.975
0 0.125 -0.975
0.125 0.125 -0.975
0.25 0.125 -0.975
0.375 0.125 -0.975
0.5 0.125 -0.975
0.625 0.125 -0.975
0.75 0.125 -0.975
0.875 0.125 -0.975
1 0.125 -0.975
1.125 0.125 -0.975
1.25 0.125 -0.975
1.375 0.125 -0.975
1.5 0.125 -0.975
1.625 0.125 -0.975
1.75 0.125 -0.975
1.875 0.125 -0.975
2 0.125 -0.975
2.125 0.125 -0.975
2.25 0.125 -0.975
2.375 0.125 -0.975
2.5 0.125 -0.975
2.625 0.125 -0.975
2.75 0.125 -0.975
2.875 0.125 -0.975
3 0.125 -0.975
3.125 0.125 -0.975
3.25 0.125 -0.975
3.375 0.125 -0.975
3.5 0.125 -0.975
3.625 0.125 -0.975
3.75 0.125 -0.975
3.875 0.125 -0.975
4 0.125 -0.975
0 0.25 -0.975
0.125 0.25 -0.975
0.25 0.25 -0.975
0.375 0.25 -0.975
0.5 0.25 -0.975
0.625 0.25 -0.975
0.75 0.25 -0.975
0.875 0.25 -0.975
1 0.25 -0.975
1.125 0.25 -0.975
1.25 0.25 -0.975
1.375 0.25 -0.975
1.5 0.25 -0.975
1.625 0.25 -0.975
1.75 0.25 -0.975
1.875 0.25 -0.975
2 0.25 -0.975
2.125 0.25 -0.975
2.25 0.25 -0.975
2.375 0.25 -0.975
2.5 0.25 -0.975
2.625 0.25 -0.975
2.75 0.25 -0.975
2.875 0.25 -0.975
3 0.25 -0.975
3.125 0.25 -0.975
3.25 0.25 -0.975
3.375 0.25 -0.975
3.5 0.25 -0.975
3.625 0.25 -0.975
3.75 0.25 -0.975
3.875 0.25 -0.975
4 0.25 -0.975
0 0.375 -0.975
0.125 0.375 -0.975
0.25 0.375 -0.975
0.375 0.375 -0.975
0.5 0.375 -0.975
0.625 0.375 -0.975
0.75 0.375 -0.975
0.875 0.375 -0.975
1 0.375 -0.975
1.125 0.375 -0.975
1.25 0.375 -0.975
1.375 0.375 -0.975
1.5 0.375 -0.975
1.625 0.375 -0.975
1.75 0.375 -0.975
1.875 0.375 -0.975
2 0.375 -0.975
2.125 0.375 -0.975
2.25 0.375 -0.975
2.375 0.375 -0.975
2.5 0.375 -0.975
2.625 0.375 -0.975
2.75 0.375 -0.975
2.875 0.375 -0.975
3 0.375 -0.975
3.125 0.375 -0.975
3.25 0.375 -0.975
3.375 0.375 -0.975
3.5 0.375 -0.975
3.625 0.375 -0.975
3.75 0.375 -0.975
3.875 0.375 -0.975
4 0.375 -0.975
0 0.5 -0.975
0.125 0.5 -0.975
0.25 0.5 -0.975
0.375 0.5 -0.975
0.5 0.5 -0.975
0.625 0.5 -0.975
0.75 0.5 -0.975
0.875 0.5 -0.975
1 0.5 -0.975
1.125 0.5 -0.975
1.25 0.5 -0.975
1.375 0.5 -0.975
1.5 0.5 -0.975
1.625 0.5 -0.975
1.75 0.5 -0.975
1.875 0.5 -0.975
2 0.5 -0.975
2.125 0.5 -0.975
2.25 0.5 -0.975
2.375 0.5 -0.975
2.5 0.5 -0.975
2.625 0.5 -0.975
2.75 0.5 -0.975
2.875 0.5 -0.975
3 0.5 -0.975
3.125 0.5 -0.975
3.25 0.5 -0.975
3.375 0.5 -0.975
3.5 0.5 -0.975
3.625 0.5 -0.975
3.75 0.5 -0.975
3.875 0.5 -0.975
4 0.5 -0.975
0 0.625 -0.975
0.125 0.625 -0.975
0.25 0.625 -0.975
0.375 0.625 -0.975
0.5 0.625 -0.975
0.625 0.625 -0.975
0.75 0.625 -0.975
0.875 0.625 -0.975
1 0.625 -0.975
1.125 0.625 -0.975
1.25 0.625 -0.975
1.375 0.625 -0.975
1.5 0.625 -0.975
1.625 0.625 -0.975
1.75 0.625 -0.975
1.875 0.625 -0.975
2 0.625 -0.975
2.125 0.625 -0.975
2.25 0.625 -0.975
2.375 0.625 -0.975
2.5 0.625 -0.975
2.625 0.625 -0.975
2.75 0.625 -0.975
2.875 0.625 -0.975
3 0.625 -0.975
3.125 0.625 -0.975
3.25 0.625 -0.975
3.375 0.625 -0.975
3.5 0.625 -0.975
3.625 0.625 -0.975
3.75 0.625 -0.975
3.875 0.625 -0.975
4 0.625 -0.975
0 0.75 -0.975
0.125 0.75 -0.975
0.25 0.75 -0.975
0.375 0.75 -0.975
0.5 0.75 -0.975
0.625 0.75 -0.975
0.75 0.75 -0.975
0.875 0.75 -0.975
1 0.75 -0.975
1.125 0.75 -0.975
1.25 0.75 -0.975
1.375 0.75 -0.975
1.5 0.75 -0.975
1.625 0.75 -0.975
1.75 0.75 -0.975
1.875 0.75 -0.975
2 0.75 -0.975
2.125 0.75 -0.975
2.25 0.75 -0.975
2.375 0.75 -0.975
2.5 0.75 -0.975
2.625 0.75 -0.975
2.75 0.75 -0.975
2.875 0.75 -0.975
3 0.75 -0.975
3.125 0.75 -0.975
3.25 0.75 -0.975
3.375 0.75 -0.975
3.5 0.75 -0.975
3.625 0.75 -0.975
3.75 0.75 -0.975
3.875 0.75 -0.975
4 0.75 -0.975
0 0.875 -0.975
0.125 0.875 -0.975
0.25 0.875 -0.975
0.375 0.875 -0.975
0.5 0.875 -0.975
0.625 0.875 -0.975
0.75 0.875 -0.975
0.875 0.875 -0.975
1 0.875 -0.975
1.125 0.875 -0.975
1.25 0.875 -0.975
1.375 0.875 -0.975
1.5 0.875 -0.975
1.625 0.875 -0.975
1.75 0.875 -0.975
1.875 0.875 -0.975
2 0.875 -0.975
2.125 0.875 -0.975
2.25 0.875 -0.975
2.375 0.875 -0.975
2.5 0.875 -0.975
2.625 0.875 -0.975
2.75 0.875 -0.975
2.875 0.875 -0.975
3 0.875 -0.975
3.125 0.875 -0.975
3.25 0.875 -0.975
3.375 0.875 -0.975
3.5 0.875 -0.975
3.625 0.875 -0.975
3.75 0.875 -0.975
3.875 0.875 -0.975
4 0.875 -0.975
0 1 -0.975
0.125 1 -0.975
0.25 1 -0.975
0.375 1 -0.975
0.5 1 -0.975
0.625 1 -0.975
0.75 1 -0.975
0.875 1 -0.975
1 1 -0.975
1.125 1 -0.975
1.25 1 -0.975
1.375 1 -0.975
1.5 1 -0.975
1.625 1 -0.975
1.75 1 -0.975
1.875 1 -0.975
2 1 -0.975
2.125 1 -0.975
2.25 1 -0.975
2.375 1 -0.975
2.5 1 -0.975
2.625 1 -0.975
2.75 1 -0.975
2.875 1 -0.975
3 1 -0.975
3.125 1 -0.975
3.25 1 -0.975
3.375 1 -0.975
3.5 1 -0.975
3.625 1 -0.975
3.75 1 -0.975
3.875 1 -0.975
4 1 -0.975
0 0 -0.85
0.125 0 -0.85
0.25 0 -0.85
0.375 0 -0.85
0.5 0 -0.85
0.625 0 -0.85
0.75 0 -0.85
0.875 0 -0.85
1 0 -0.85
1.125 0 -0.85
1.25 0 -0.85
1.375 0 -0.85
1.5 0 -0.85
1.625 0 -0.85
1.75 0 -0.85
1.875 0 -0.85
2 0 -0.85
2.125 0 -0.85
2.25 0 -0.85
2.375 0 -0.85
2.5 0 -0.85
2.625 0 -0.85
2.75 0 -0.85
2.875 0 -0.85
3 0 -0.85
3.125 0 -0.85
3.25 0 -0.85
3.375 0 -0.85
3.5 0 -0.85
3.625 0 -0.85
3.75 0 -0.85
3.875 0 -0.85
4 0 -0.85
0 0.125 -0.85
0.125 0.125 -0.85
0.25 0.125 -0.85
0.375 0.125 -0.85
0.5 0.125 -0.85
0.625 0.125 -0.85
0.75 0.125 -0.85
0.875 0.125 -0.85
1 0.125 -0.85
1.125 0.125 -0.85
1.25 0.125 -0.85
1.375 0.125 -0.85
1.5 0.125 -0.85
[...]
POINT_DATA 18785
SCALARS weights float 1
LOOKUP_TABLE default
0.195313 0.260417 0.260417 0.260417 0.260417 0.260417 0.260417 0.260417 0.260417 0.260417 0.260417 0.260417 0.260417 0.260417 0.260417 0.260417 0.260417 0.260417 0.260417 0.260417 0.260417 0.260417 0.260417 0.260417 0.260416 0.260417 0.260416 0.260417 0.260416 0.260416 0.260417 0.260417 0.0651044 0.260417 0.390625 0.390625 0.390625 0.390625 0.390625 0.390625 0.390625 0.390625 0.390625 0.390625 0.390625 0.390625 0.390625 0.390625 0.390625 0.390625 0.390625 0.390625 0.390626 0.390625 0.390625 0.390625 0.390625 0.390625 0.390625 0.390625 0.390625 0.390625 0.390625 0.390625 0.390626 0.130209 0.260417 0.390625 0.390625 0.390625 0.390625 0.390625 0.390625 0.390625 0.390625 0.390625 0.390625 0.390625 0.390625 0.390625 0.390625 0.390625 0.390625 0.390625 0.390625 0.390626 0.390625 0.390625 0.390625 0.390625 0.390625 0.390625 0.390625 0.390625 0.390625 0.390625 0.390625 0.390626 0.130209 0.260417 0.390625 0.390625 0.390625 0.390625 0.390625 0.390625 0.390625 0.390625 0.390625 0.390625 0.390625 0.390625 0.390625 0.390625 0.390625 0.390625 0.390625 0.390625 0.390626 0.390625 0.390625 0.390625 0.390625 0.390625 0.390625 0.390624 0.390625 0.390625 0.390625 0.390625 0.390626 0.130209 0.260417 0.390625 0.390625 0.390625 0.390625 0.390625 0.390625 0.390625 0.390625 0.390625 0.390625 0.390625 0.390625 0.390625 0.390625 0.390625 0.390625 0.390625 0.390625 0.390626 0.390625 0.390625 0.390625 0.390625 0.390625 0.390625 0.390624 0.390625 0.390625 0.390625 0.390625 0.390626 0.130209 0.260417 0.390625 0.390625 0.390625 0.390625 0.390625 0.390625 0.390625 0.390625 0.390625 0.390625 0.390626 0.390625 0.390625 0.390625 0.390625 0.390626 0.390625 0.390625 0.390626 0.390625 0.390625 0.390625 0.390625 0.390625 0.390625 0.390625 0.390626 0.390625 0.390625 0.390625 0.390626 0.130209 0.260417 0.390625 0.390625 0.390625 0.390625 0.390625 0.390625 0.390625 0.390625 0.390625 0.390625 0.390626 0.390625 0.390625 0.390625 0.390625 0.390626 0.390625 0.390625 0.390626 0.390625 0.390625 0.390625 0.390625 0.390625 0.390625 0.390625 0.390626 0.390625 0.390625 0.390625 0.390626 0.130209 0.260417 0.390625 0.390625 0.390625 0.390625 0.390625 0.390625 0.390625 0.390625 0.390625 0.390625 0.390625 0.390625 0.390625 0.390625 0.390625 0.390625 0.390625 0.390625 0.390626 0.390625 0.390625 0.390625 0.390625 0.390625 0.390625 0.390624 0.390625 0.390625 0.390624 0.390625 0.390625 0.130209 0.0651042 0.130208 0.130208 0.130208 0.130208 0.130208 0.130208 0.130208 0.130208 0.130208 0.130208 0.130208 0.130208 0.130208 0.130208 0.130208 0.130209 0.130208 0.130208 0.130209 0.130208 0.130208 0.130208 0.130208 0.130208 0.130208 0.130208 0.130208 0.130209 0.130208 0.130208 0.130209 0.0651043 0.260417 0.390625 0.390625 0.390625 0.390625 0.390625 0.390625 0.390625 0.390625 0.390625 0.390625 0.390625 0.390625 0.390625 0.390625 0.390625 0.390625 0.390625 0.390625 0.390626 0.390625 0.390626 0.390625 0.390625 0.390625 0.390625 0.390624 0.390625 0.390625 0.390625 0.390625 0.390625 0.130209 0.390625 0.78125 0.78125 0.78125 0.78125 0.78125 0.78125 0.78125 0.78125 0.78125 0.78125 0.781251 0.78125 0.781251 0.78125 0.781251 0.781251 0.781251 0.781251 0.781251 0.781251 0.781251 0.78125 0.781251 0.78125 0.781251 0.78125 0.78125 0.781251 0.78125 0.781251 0.781251 0.390626 0.390625 0.78125 0.78125 0.78125 0.78125 0.781251 0.78125 0.78125 0.78125 0.78125 0.78125 0.781251 0.78125 0.781251 0.78125 0.781251 0.781251 0.781251 0.781251 0.781251 0.781251 0.781251 0.78125 0.781251 0.78125 0.781251 0.78125 0.78125 0.781251 0.78125 0.781251 0.781251 0.390626 0.390625 0.78125 0.78125 0.78125 0.78125 0.78125 0.78125 0.78125 0.78125 0.78125 0.781251 0.781251 0.78125 0.78125 0.78125 0.78125 0.781251 0.781251 0.781251 0.781251 0.781251 0.781251 0.78125 0.781251 0.78125 0.781251 0.78125 0.78125 0.781251 0.78125 0.781251 0.781251 0.390626 0.390625 0.78125 0.78125 0.78125 0.78125 0.78125 0.78125 0.78125 0.78125 0.78125 0.78125 0.781251 0.78125 0.78125 0.78125 0.78125 0.781251 0.781251 0.78125 0.781251 0.781251 0.781251 0.78125 0.781251 0.78125 0.78125 0.78125 0.78125 0.781251 0.78125 0.781251 0.781251 0.390626 0.390625 0.781251 0.781251 0.781251 0.781251 0.781251 0.78125 0.78125 0.78125 0.78125 0.781251 0.781251 0.781251 0.781251 0.78125 0.781251 0.781251 0.781251 0.781251 0.781252 0.781251 0.781251 0.78125 0.781251 0.78125 0.781251 0.78125 0.781251 0.781251 0.78125 0.781251 0.781251 0.390626 0.390625 0.781251 0.781251 0.781251 0.781251 0.781251 0.781251 0.78125 0.78125 0.78125 0.781251 0.781251 0.781251 0.781251 0.78125 0.781251 0.781251 0.781251 0.781251 0.781252 0.781251 0.781251 0.78125 0.781251 0.78125 0.781251 0.78125 0.78125 0.781251 0.78125 0.781251 0.781251 0.390626 0.390625 0.78125 0.78125 0.78125 0.78125 0.78125 0.78125 0.78125 0.78125 0.78125 0.78125 0.781251 0.78125 0.78125 0.78125 0.78125 0.781251 0.781251 0.78125 0.781251 0.781251 0.781251 0.78125 0.78125 0.78125 0.78125 0.781249 0.78125 0.781251 0.781249 0.781251 0.781251 0.390626 0.130208 0.390625 0.390625 0.390625 0.390625 0.390625 0.390625 0.390625 0.390625 0.390625 0.390625 0.390625 0.390625 0.390625 0.390625 0.390625 0.390625 0.390625 0.390625 0.390626 0.390625 0.390625 0.390625 0.390625 0.390625 0.390625 0.390625 0.390625 0.390626 0.390625 0.390625 0.390626 0.260417 0.260417 0.390625 0.390625 0.390625 0.390625 0.390625 0.390625 0.390625 0.390625 0.390625 0.390625 0.390625 0.390625 0.390625 0.390625 0.390625 0.390625 0.390625 0.390625 0.390626 0.390625 0.390625 0.390625 0.390625 0.390625 0.390625 0.390624 0.390625 0.390625 0.390625 0.390625 0.390625 0.130209 0.390625 0.78125 0.78125 0.78125 0.78125 0.78125 0.78125 0.78125 0.78125 0.78125 0.78125 0.781251 0.78125 0.78125 0.78125 0.78125 0.781251 0.781251 0.78125 0.781251 0.781251 0.781251 0.78125 0.781251 0.78125 0.781251 0.781249 0.78125 0.781251 0.78125 0.781251 0.781251 0.390626 0.390625 0.78125 0.78125 0.78125 0.78125 0.78125 0.78125 0.78125 0.78125 0.78125 0.78125 0.781251 0.78125 0.78125 0.78125 0.78125 0.781251 0.781251 0.78125 0.781251 0.781251 0.781251 0.78125 0.781251 0.78125 0.78125 0.78125 0.78125 0.781251 0.78125 0.781251 0.781251 0.390626 0.390625 0.78125 0.78125 0.78125 0.78125 0.78125 0.78125 0.78125 0.78125 0.78125 0.78125 0.781251 0.78125 0.78125 0.78125 0.78125 0.781251 0.781251 0.78125 0.781251 0.781251 0.781251 0.78125 0.78125 0.78125 0.78125 0.781249 0.78125 0.781251 0.78125 0.781251 0.781251 0.390626 0.390625 0.78125 0.78125 0.78125 0.78125 0.78125 0.78125 0.78125 0.78125 0.78125 0.78125 0.781251 0.78125 0.78125 0.78125 0.78125 0.781251 0.781251 0.78125 0.781251 0.781251 0.781251 0.78125 0.78125 0.78125 0.78125 0.781249 0.78125 0.781251 0.78125 0.781251 0.781251 0.390626 0.390625 0.78125 0.78125 0.78125 0.78125 0.78125 0.78125 0.78125 0.78125 0.78125 0.78125 0.781251 0.78125 0.78125 0.78125 0.78125 0.781251 0.781251 0.781251 0.781251 0.781251 0.781251 0.78125 0.781251 0.78125 0.781251 0.78125 0.78125 0.781251 0.78125 0.781251 0.781251 0.390626 0.390625 0.78125 0.78125 0.78125 0.78125 0.78125 0.78125 0.78125 0.78125 0.78125 0.781251 0.781251 0.78125 0.781251 0.78125 0.78125 0.781251 0.781251 0.781251 0.781251 0.781251 0.781251 0.78125 0.781251 0.78125 0.781251 0.78125 0.78125 0.781251 0.78125 0.781251 0.781251 0.390626 0.390625 0.78125 0.78125 0.78125 0.78125 0.78125 0.78125 0.78125 0.78125 0.78125 0.78125 0.781251 0.78125 0.78125 0.78125 0.78125 0.781251 0.781251 0.78125 0.781251 0.781251 0.781251 0.78125 0.78125 0.78125 0.78125 0.781249 0.78125 0.781251 0.781249 0.781251 0.781251 0.390626 0.130208 0.390625 0.390625 0.390625 0.390625 0.390625 0.390625 0.390625 0.390625 0.390625 0.390625 0.390625 0.390625 0.390625 0.390625 0.390625 0.390625 0.390625 0.390625 0.390626 0.390625 0.390625 0.390625 0.390625 0.390625 0.390625 0.390625 0.390625 0.390626 0.390625 0.390625 0.390626 0.260417 0.260417 0.390625 0.390625 0.390625 0.390625 0.390625 0.390625 0.390625 0.390625 0.390625 0.390625 0.390625 0.390625 0.390625 0.390625 0.390625 0.390625 0.390625 0.390625 0.390626 0.390625 0.390626 0.390625 0.390625 0.390625 0.390625 0.390624 0.390625 0.390625 0.390625 0.390625 0.390625 0.130209 0.390625 0.78125 0.78125 0.78125 0.78125 0.78125 0.78125 0.78125 0.78125 0.78125 0.78125 0.781251 0.78125 0.78125 0.78125 0.78125 0.781251 0.781251 0.78125 0.781251 0.781251 0.781251 0.78125 0.78125 0.78125 0.78125 0.781249 0.78125 0.781251 0.781249 0.781251 0.781251 0.390626 0.390625 0.78125 0.78125 0.78125 0.78125 0.78125 0.78125 0.78125 0.78125 0.78125 0.78125 0.781251 0.78125 0.78125 0.78125 0.78125 0.781251 0.781251 0.78125 0.781251 0.781251 0.781251 0.78125 0.78125 0.78125 0.78125 0.781249 0.78125 0.781251 0.78125 0.781251 0.781251 0.390626 0.390625 0.78125 0.78125 0.78125 0.78125 0.78125 0.78125 0.78125 0.78125 0.78125 0.78125 0.781251 0.78125 0.78125 0.78125 0.78125 0.781251 0.781251 0.78125 0.781251 0.781251 0.781251 0.78125 0.78125 0.78125 0.78125 0.781249 0.78125 0.781251 0.78125 0.781251 0.781251 0.390626 0.390625 0.78125 0.78125 0.78125 0.78125 0.78125 0.78125 0.78125 0.78125 0.78125 0.78125 0.781251 0.78125 0.78125 0.78125 0.78125 0.781251 0.781251 0.78125 0.781251 0.781251 0.781251 0.78125 0.78125 0.78125 0.78125 0.781249 0.78125 0.781251 0.781249 0.781251 0.781251 0.390626 0.390625 0.78125 0.78125 0.78125 0.78125 0.78125 0.78125 0.78125 0.78125 0.78125 0.78125 0.781251 0.78125 0.78125 0.78125 0.78125 0.781251 0.781251 0.78125 0.781251 0.781251 0.781251 0.78125 0.781251 0.78125 0.78125 0.781249 0.78125 0.781251 0.78125 0.781251 0.781251 0.390626 0.390625 0.78125 0.78125 0.78125 0.78125 0.78125 0.78125 0.78125 0.78125 0.78125 0.78125 0.781251 0.78125 0.78125 0.78125 0.78125 0.781251 0.781251 0.78125 0.781251 0.781251 0.781251 0.78125 0.781251 0.78125 0.781251 0.78125 0.78125 0.781251 0.78125 0.781251 0.781251 0.390626 0.390625 0.78125 0.78125 0.78125 0.78125 0.78125 0.78125 0.78125 0.78125 0.78125 0.78125 0.78125 0.78125 0.78125 0.78125 0.78125 0.781251 0.781251 0.78125 0.781251 0.78125 0.781251 0.78125 0.78125 0.78125 0.78125 0.781249 0.78125 0.781251 0.781249 0.781251 0.781251 0.390626 0.130208 0.390625 0.390625 0.390625 0.390625 0.390625 0.390625 0.390625 0.390625 0.390625 0.390625 0.390625 0.390625 0.390625 0.390625 0.390625 0.390625 0.390625 0.390625 0.390625 0.390625 0.390625 0.390625 0.390625 0.390625 0.390625 0.390625 0.390625 0.390626 0.390625 0.390625 0.390625 0.260417 0.260417 0.390625 0.390625 0.390625 0.390625 0.390625 0.390625 0.390625 0.390625 0.390625 0.390625 0.390625 0.390625 0.390625 0.390625 0.390625 0.390625 0.390625 0.390625 0.390626 0.390625 0.390625 0.390625 0.390625 0.390625 0.390625 0.390624 0.390625 0.390625 0.390625 0.390625 0.390625 0.130209 0.390625 0.78125 0.78125 0.78125 0.78125 0.78125 0.78125 0.78125 0.78125 0.78125 0.78125 0.781251 0.78125 0.78125 0.78125 0.78125 0.781251 0.781251 0.78125 0.781251 0.781251 0.781251 0.78125 0.78125 0.78125 0.78125 0.781249 0.78125 0.781251 0.78125 0.781251 0.781251 0.390626 0.390625 0.78125 0.78125 0.78125 0.78125 0.78125 0.78125 0.78125 0.78125 0.78125 0.78125 0.781251 0.78125 0.78125 0.78125 0.78125 0.781251 0.781251 0.78125 0.781251 0.781251 0.781251 0.78125 0.781251 0.78125 0.78125 0.78125 0.78125 0.781251 0.78125 0.781251 0.781251 0.390626 0.390625 0.78125 0.78125 0.78125 0.78125 0.78125 0.78125 0.78125 0.78125 0.78125 0.78125 0.781251 0.78125 0.78125 0.78125 0.78125 0.781251 0.781251 0.78125 0.781251 0.781251 0.781251 0.78125 0.78125 0.78125 0.78125 0.781249 0.78125 0.781251 0.78125 0.781251 0.781251 0.390626 0.390625 0.78125 0.78125 0.78125 0.78125 0.78125 0.78125 0.78125 0.78125 0.78125 0.78125 0.781251 0.78125 0.78125 0.78125 0.78125 0.781251 0.781251 0.78125 0.781251 0.781251 0.781251 0.78125 0.78125 0.78125 0.78125 0.781249 0.78125 0.781251 0.78125 0.781251 0.781251 0.390626 0.390625 0.78125 0.78125 0.78125 0.78125 0.78125 0.78125 0.78125 0.78125 0.78125 0.78125 0.781251 0.78125 0.78125 0.78125 0.78125 0.781251 0.781251 0.781251 0.781251 0.781251 0.781251 0.78125 0.781251 0.78125 0.781251 0.78125 0.78125 0.781251 0.78125 0.781251 0.781251 0.390626 0.390625 0.78125 0.78125 0.78125 0.78125 0.78125 0.78125 0.78125 0.78125 0.78125 0.781251 0.781251 0.78125 0.78125 0.78125 0.78125 0.781251 0.781251 0.78125 0.781251 0.781251 0.781251 0.78125 0.781251 0.78125 0.781251 0.78125 0.78125 0.781251 0.78125 0.781251 0.781251 0.390626 0.390625 0.78125 0.78125 0.78125 0.78125 0.78125 0.78125 0.78125 0.78125 0.78125 0.78125 0.78125 0.78125 0.78125 0.78125 0.78125 0.781251 0.781251 0.78125 0.781251 0.781251 0.781251 0.78125 0.78125 0.78125 0.78125 0.781249 0.78125 0.781251 0.781249 0.781251 0.781251 0.390626 0.130208 0.390625 0.390625 0.390625 0.390625 0.390625 0.390625 0.390625 0.390625 0.390625 0.390625 0.390625 0.390625 0.390625 0.390625 0.390625 0.390625 0.390625 0.390625 0.390626 0.390625 0.390625 0.390625 0.390625 0.390625 0.390625 0.390625 0.390625 0.390626 0.390625 0.390625 0.390626 0.260417 0.260417 0.390625 0.390625 0.390625 0.390625 0.390625 0.390625 0.390625 0.390625 0.390625 0.390625 0.390625 0.390625 0.390625 0.390625 0.390625 0.390625 0.390625 0.390625 0.390626 0.390625 0.390625 0.390625 0.390625 0.390625 0.390625 0.390624 0.390625 0.390625 0.390625 0.390625 0.390625 0.130209 0.390625 0.78125 0.78125 0.78125 0.78125 0.78125 0.78125 0.78125 0.78125 0.78125 0.78125 0.781251 0.78125 0.78125 0.78125 0.78125 0.781251 0.781251 0.78125 0.781251 0.781251 0.781251 0.78125 0.78125 0.78125 0.78125 0.781249 0.78125 0.781251 0.781249 0.781251 0.781251 0.390626 0.390625 0.78125 0.78125 0.78125 0.78125 0.78125 0.78125 0.78125 0.78125 0.78125 0.78125 0.781251 0.78125 0.78125 0.78125 0.78125 0.781251 0.781251 0.78125 0.781251 0.781251 0.781251 0.78125 0.781251 0.78125 0.78125 0.781249 0.78125 0.781251 0.78125 0.781251 0.781251 0.390626 0.390625 0.78125 0.78125 0.78125 0.78125 0.78125 0.78125 0.78125 0.78125 0.78125 0.78125 0.781251 0.78125 0.78125 0.78125 0.78125 0.781251 0.781251 0.78125 0.781251 0.781251 0.781251 0.78125 0.78125 0.78125 0.78125 0.78125 0.78125 0.781251 0.781249 0.781251 0.781251 0.390626 0.390625 0.78125 0.78125 0.78125 0.78125 0.78125 0.78125 0.78125 0.78125 0.78125 0.78125 0.781251 0.78125 0.78125 0.78125 0.78125 0.781251 0.781251 0.78125 0.781251 0.781251 0.781251 0.78125 0.78125 0.78125 0.78125 0.781249 0.78125 0.781251 0.781249 0.781251 0.781251 0.390626 0.390625 0.78125 0.78125 0.78125 0.78125 0.78125 0.78125 0.78125 0.78125 0.78125 0.78125 0.781251 0.78125 0.78125 0.78125 0.78125 0.781251 0.781251 0.78125 0.781251 0.781251 0.781251 0.78125 0.781251 0.78125 0.78125 0.78125 0.78125 0.781251 0.78125 0.781251 0.781251 0.390626 0.390625 0.78125 0.78125 0.78125 0.78125 0.78125 0.78125 0.78125 0.78125 0.78125 0.78125 0.781251 0.78125 0.78125 0.78125 0.78125 0.781251 0.781251 0.78125 0.781251 0.781251 0.781251 0.78125 0.781251 0.78125 0.78125 0.78125 0.78125 0.781251 0.78125 0.781251 0.781251 0.390626 0.390625 0.78125 0.78125 0.78125 0.78125 0.78125 0.78125 0.78125 0.78125 0.78125 0.78125 0.78125 0.78125 0.78125 0.78125 0.78125 0.781251 0.781251 0.78125 0.781251 0.78125 0.781251 0.78125 0.78125 0.78125 0.78125 0.781249 0.78125 0.781251 0.781249 0.781251 0.781251 0.390626 0.130208 0.390625 0.390625 0.390625 0.390625 0.390625 0.390625 0.390625 0.390625 0.390625 0.390625 0.390625 0.390625 0.390625 0.390625 0.390625 0.390625 0.390625 0.390625 0.390625 0.390625 0.390625 0.390625 0.390625 0.390625 0.390625 0.390625 0.390625 0.390626 0.390625 0.390625 0.390625 0.260417 0.260417 0.390625 0.390625 0.390625 0.390625 0.390625 0.390625 0.390625 0.390625 0.390625 0.390625 0.390625 0.390625 0.390625 0.390625 0.390625 0.390625 0.390625 0.390625 0.390626 0.390625 0.390625 0.390625 0.390625 0.390625 0.390625 0.390624 0.390625 0.390625 0.390625 0.390625 0.390625 0.130209 0.390625 0.78125 0.78125 0.78125 0.78125 0.78125 0.78125 0.78125 0.78125 0.78125 0.78125 0.781251 0.78125 0.78125 0.78125 0.78125 0.781251 0.781251 0.78125 0.781251 0.781251 0.781251 0.78125 0.78125 0.78125 0.78125 0.781249 0.78125 0.781251 0.78125 0.781251 0.781251 0.390626 0.390625 0.78125 0.78125 0.78125 0.78125 0.78125 0.78125 0.78125 0.78125 0.78125 0.78125 0.781251 0.78125 0.78125 0.78125 0.78125 0.781251 0.781251 0.78125 0.781251 0.781251 0.781251 0.78125 0.781251 0.78125 0.781251 0.78125 0.78125 0.781251 0.78125 0.781251 0.781251 0.390626 0.390625 0.78125 0.78125 0.78125 0.78125 0.78125 0.78125 0.78125 0.78125 0.78125 0.78125 0.781251 0.78125 0.78125 0.78125 0.78125 0.781251 0.781251 0.78125 0.781251 0.781251 0.781251 0.78125 0.78125 0.78125 0.78125 0.781249 0.78125 0.781251 0.78125 0.781251 0.781251 0.390626 0.390625 0.78125 0.78125 0.78125 0.78125 0.78125 0.78125 0.78125 0.78125 0.78125 0.78125 0.781251 0.78125 0.78125 0.78125 0.78125 0.781251 0.781251 0.78125 0.781251 0.781251 0.781251 0.78125 0.78125 0.78125 0.78125 0.781249 0.78125 0.781251 0.781249 0.781251 0.781251 0.390626 0.390625 0.78125 0.78125 0.781251 0.78125 0.781251 0.78125 0.78125 0.78125 0.78125 0.78125 0.781251 0.78125 0.781251 0.78125 0.78125 0.781251 0.781251 0.78125 0.781251 0.781251 0.781251 0.78125 0.781251 0.78125 0.781251 0.78125 0.78125 0.781251 0.78125 0.781251 0.781251 0.390626 0.390625 0.781251 0.781251 0.781251 0.78125 0.781251 0.78125 0.78125 0.78125 0.78125 0.781251 0.781251 0.78125 0.78125 0.78125 0.78125 0.781251 0.781251 0.781251 0.781251 0.781251 0.781251 0.78125 0.781251 0.78125 0.781251 0.78125 0.78125 0.781251 0.78125 0.781251 0.781251 0.390626 0.390625 0.78125 0.78125 0.78125 0.78125 0.78125 0.78125 0.78125 0.78125 0.78125 0.78125 0.78125 0.78125 0.78125 0.78125 0.78125 0.781251 0.781251 0.78125 0.781251 0.781251 0.781251 0.78125 0.78125 0.78125 0.78125 0.781249 0.78125 0.781251 0.781249 0.781251 0.781251 0.390626 0.130208 0.390625 0.390625 0.390625 0.390625 0.390625 0.390625 0.390625 0.390625 0.390625 0.390625 0.390625 0.390625 0.390625 0.390625 0.390625 0.390625 0.390625 0.390625 0.390626 0.390625 0.390625 0.390625 0.390625 0.390625 0.390625 0.390625 0.390625 0.390626 0.390625 0.390625 0.390626 0.260417 0.260417 0.390625 0.390625 0.390625 0.390625 0.390625 0.390625 0.390625 0.390625 0.390625 0.390625 0.390625 0.390625 0.390625 0.390625 0.390625 0.390625 0.390625 0.390625 0.390626 0.390625 0.390625 0.390625 0.390625 0.390625 0.390625 0.390624 0.390625 0.390625 0.390625 0.390625 0.390625 0.130209 0.390625 0.78125 0.78125 0.78125 0.78125 0.78125 0.78125 0.78125 0.78125 0.78125 0.78125 0.781251 0.78125 0.78125 0.78125 0.78125 0.781251 0.781251 0.78125 0.781251 0.781251 0.781251 0.78125 0.78125 0.78125 0.78125 0.78125 0.78125 0.781251 0.78125 0.781251 0.781251 0.390626 0.390625 0.78125 0.78125 0.78125 0.78125 0.78125 0.78125 0.78125 0.78125 0.78125 0.78125 0.781251 0.78125 0.78125 0.78125 0.78125 0.781251 0.781251 0.78125 0.781251 0.781251 0.781251 0.78125 0.78125 0.78125 0.78125 0.78125 0.78125 0.781251 0.78125 0.781251 0.781251 0.390626 0.390625 0.78125 0.78125 0.78125 0.78125 0.78125 0.78125 0.78125 0.78125 0.78125 0.78125 0.781251 0.78125 0.78125 0.78125 0.78125 0.781251 0.781251 0.78125 0.781251 0.781251 0.781251 0.78125 0.78125 0.78125 0.78125 0.781249 0.78125 0.781251 0.78125 0.781251 0.781251 0.390626 0.390625 0.78125 0.78125 0.78125 0.78125 0.78125 0.78125 0.78125 0.78125 0.78125 0.78125 0.781251 0.78125 0.78125 0.78125 0.78125 0.781251 0.781251 0.78125 0.781251 0.781251 0.781251 0.78125 0.78125 0.78125 0.78125 0.781249 0.78125 0.781251 0.781249 0.781251 0.781251 0.390626 0.390625 0.78125 0.78125 0.78125 0.78125 0.78125 0.78125 0.78125 0.78125 0.78125 0.78125 0.781251 0.78125 0.781251 0.78125 0.78125 0.781251 0.781251 0.78125 0.781251 0.781251 0.781251 0.78125 0.781251 0.78125 0.781251 0.78125 0.78125 0.781251 0.78125 0.781251 0.781251 0.390626 0.390625 0.78125 0.78125 0.78125 0.78125 0.78125 0.78125 0.78125 0.78125 0.78125 0.78125 0.781251 0.78125 0.78125 0.78125 0.78125 0.781251 0.781251 0.78125 0.781251 0.781251 0.781251 0.78125 0.781251 0.78125 0.781251 0.78125 0.78125 0.781251 0.78125 0.781251 0.781251 0.390626 0.390625 0.78125 0.78125 0.78125 0.78125 0.78125 0.78125 0.78125 0.78125 0.78125 0.