# vtk DataFile Version 5.1
vtk output
ASCII
DATASET UNSTRUCTURED_GRID
POINTS 681 float
0 0 0 0.25 0 0 0.5 0 0 
0.75 0 0 1 0 0 1.25 0 0 
1.5 0 0 1.75 0 0 2 0 0 
2.25 0 0 2.5 0 0 2.75 0 0 
3 0 0 3.25 0 0 3.5 0 0 
3.75 0 0 4 0 0 0 0.25 0 
0.25 0.25 0 0.5 0.25 0 0.75 0.25 0 
1 0.25 0 1.25 0.25 0 1.5 0.25 0 
1.75 0.25 0 2 0.25 0 2.25 0.25 0 
2.5 0.25 0 2.75 0.25 0 3 0.25 0 
3.25 0.25 0 3.5 0.25 0 3.75 0.25 0 
4 0.25 0 0 0.5 0 0.25 0.5 0 
0.5 0.5 0 0.75 0.5 0 1 0.5 0 
1.25 0.5 0 1.5 0.5 0 1.75 0.5 0 
2 0.5 0 2.25 0.5 0 2.5 0.5 0 
2.75 0.5 0 3 0.5 0 3.25 0.5 0 
3.5 0.5 0 3.75 0.5 0 4 0.5 0 
0 0.75 0 0.25 0.75 0 0.5 0.75 0 
0.75 0.75 0 1 0.75 0 1.25 0.75 0 
1.5 0.75 0 1.75 0.75 0 2 0.75 0 
2.25 0.75 0 2.5 0.75 0 2.75 0.75 0 
3 0.75 0 3.25 0.75 0 3.5 0.75 0 
3.75 0.75 0 4 0.75 0 0 1 0 
0.25 1 0 0.5 1 0 0.75 1 0 
1 1 0 1.25 1 0 1.5 1 0 
1.75 1 0 2 1 0 2.25 1 0 
2.5 1 0 2.75 1 0 3 1 0 
3.25 1 0 3.5 1 0 3.75 1 0 
4 1 0 0 0 0.25 0.25 0 0.25 
0.5 0 0.25 0.75 0 0.25 1 0 0.25 
1.25 0 0.25 1.5 0 0.25 1.75 0 0.25 
2 0 0.25 2.25 0 0.25 2.5 0 0.25 
2.75 0 0.25 3 0 0.25 3.25 0 0.25 
3.5 0 0.25 3.75 0 0.25 4 0 0.25 
0 0.25 0.25 0.25 0.25 0.25 0.5 0.25 0.25 
0.75 0.25 0.25 1 0.25 0.25 1.25 0.25 0.25 
1.5 0.25 0.25 1.75 0.25 0.25 2 0.25 0.25 
2.25 0.25 0.25 2.5 0.25 0.25 2.75 0.25 0.25 
3 0.25 0.25 3.25 0.25 0.25 3.5 0.25 0.25 
3.75 0.25 0.25 4 0.25 0.25 0 0.5 0.25 
0.25 0.5 0.25 0.5 0.5 0.25 0.75 0.5 0.25 
1 0.5 0.25 1.25 0.5 0.25 1.5 0.5 0.25 
1.75 0.5 0.25 2 0.5 0.25 2.25 0.5 0.25 
2.5 0.5 0.25 2.75 0.5 0.25 3 0.5 0.25 
3.25 0.5 0.25 3.5 0.5 0.25 3.75 0.5 0.25 
4 0.5 0.25 0 0.75 0.25 0.25 0.75 0.25 
0.5 0.75 0.25 0.75 0.75 0.25 1 0.75 0.25 
1.25 0.75 0.25 1.5 0.75 0.25 1.75 0.75 0.25 
2 0.75 0.25 2.25 0.75 0.25 2.5 0.75 0.25 
2.75 0.75 0.25 3 0.75 0.25 3.25 0.75 0.25 
3.5 0.75 0.25 3.75 0.75 0.25 4 0.75 0.25 
0 1 0.25 0.25 1 0.25 0.5 1 0.25 
0.75 1 0.25 1 1 0.25 1.25 1 0.25 
1.5 1 0.25 1.75 1 0.25 2 1 0.25 
2.25 1 0.25 2.5 1 0.25 2.75 1 0.25 
3 1 0.25 3.25 1 0.25 3.5 1 0.25 
3.75 1 0.25 4 1 0.25 0 0 0.5 
0.25 0 0.5 0.5 0 0.5 0.75 0 0.5 
1 0 0.5 1.25 0 0.5 1.5 0 0.5 
1.75 0 0.5 2 0 0.5 2.25 0 0.5 
2.5 0 0.5 2.75 0 0.5 3 0 0.5 
3.25 0 0.5 3.5 0 0.5 3.75 0 0.5 
4 0 0.5 0 0.25 0.5 0.25 0.25 0.5 
0.5 0.25 0.5 0.75 0.25 0.5 1 0.25 0.5 
1.25 0.25 0.5 1.5 0.25 0.5 1.75 0.25 0.5 
2 0.25 0.5 2.25 0.25 0.5 2.5 0.25 0.5 
2.75 0.25 0.5 3 0.25 0.5 3.25 0.25 0.5 
3.5 0.25 0.5 3.75 0.25 0.5 4 0.25 0.5 
0 0.5 0.5 0.25 0.5 0.5 0.5 0.5 0.5 
0.75 0.5 0.5 1 0.5 0.5 1.25 0.5 0.5 
1.5 0.5 0.5 1.75 0.5 0.5 2 0.5 0.5 
2.25 0.5 0.5 2.5 0.5 0.5 2.75 0.5 0.5 
3 0.5 0.5 3.25 0.5 0.5 3.5 0.5 0.5 
3.75 0.5 0.5 4 0.5 0.5 0 0.75 0.5 
0.25 0.75 0.5 0.5 0.75 0.5 0.75 0.75 0.5 
1 0.75 0.5 1.25 0.75 0.5 1.5 0.75 0.5 
1.75 0.75 0.5 2 0.75 0.5 2.25 0.75 0.5 
2.5 0.75 0.5 2.75 0.75 0.5 3 0.75 0.5 
3.25 0.75 0.5 3.5 0.75 0.5 3.75 0.75 0.5 
4 0.75 0.5 0 1 0.5 0.25 1 0.5 
0.5 1 0.5 0.75 1 0.5 1 1 0.5 
1.25 1 0.5 1.5 1 0.5 1.75 1 0.5 
2 1 0.5 2.25 1 0.5 2.5 1 0.5 
2.75 1 0.5 3 1 0.5 3.25 1 0.5 
3.5 1 0.5 3.75 1 0.5 4 1 0.5 
0 0 0.75 0.25 0 0.75 0.5 0 0.75 
0.75 0 0.75 1 0 0.75 1.25 0 0.75 
1.5 0 0.75 1.75 0 0.75 2 0 0.75 
2.25 0 0.75 2.5 0 0.75 2.75 0 0.75 
3 0 0.75 3.25 0 0.75 3.5 0 0.75 
3.75 0 0.75 4 0 0.75 0 0.25 0.75 
0.25 0.25 0.75 0.5 0.25 0.75 0.75 0.25 0.75 
1 0.25 0.75 1.25 0.25 0.75 1.5 0.25 0.75 
1.75 0.25 0.75 2 0.25 0.75 2.25 0.25 0.75 
2.5 0.25 0.75 2.75 0.25 0.75 3 0.25 0.75 
3.25 0.25 0.75 3.5 0.25 0.75 3.75 0.25 0.75 
4 0.25 0.75 0 0.5 0.75 0.25 0.5 0.75 
0.5 0.5 0.75 0.75 0.5 0.75 1 0.5 0.75 
1.25 0.5 0.75 1.5 0.5 0.75 1.75 0.5 0.75 
2 0.5 0.75 2.25 0.5 0.75 2.5 0.5 0.75 
2.75 0.5 0.75 3 0.5 0.75 3.25 0.5 0.75 
3.5 0.5 0.75 3.75 0.5 0.75 4 0.5 0.75 
0 0.75 0.75 0.25 0.75 0.75 0.5 0.75 0.75 
0.75 0.75 0.75 1 0.75 0.75 1.25 0.75 0.75 
1.5 0.75 0.75 1.75 0.75 0.75 2 0.75 0.75 
2.25 0.75 0.75 2.5 0.75 0.75 2.75 0.75 0.75 
3 0.75 0.75 3.25 0.75 0.75 3.5 0.75 0.75 
3.75 0.75 0.75 4 0.75 0.75 0 1 0.75 
0.25 1 0.75 0.5 1 0.75 0.75 1 0.75 
1 1 0.75 1.25 1 0.75 1.5 1 0.75 
1.75 1 0.75 2 1 0.75 2.25 1 0.75 
2.5 1 0.75 2.75 1 0.75 3 1 0.75 
3.25 1 0.75 3.5 1 0.75 3.75 1 0.75 
4 1 0.75 0 0 1 0.25 0 1 
0.5 0 1 0.75 0 1 1 0 1 
1.25 0 1 1.5 0 1 1.75 0 1 
2 0 1 2.25 0 1 2.5 0 1 
2.75 0 1 3 0 1 3.25 0 1 
3.5 0 1 3.75 0 1 4 0 1 
0 0.25 1 0.25 0.25 1 0.5 0.25 1 
0.75 0.25 1 1 0.25 1 1.25 0.25 1 
1.5 0.25 1 1.75 0.25 1 2 0.25 1 
2.25 0.25 1 2.5 0.25 1 2.75 0.25 1 
3 0.25 1 3.25 0.25 1 3.5 0.25 1 
3.75 0.25 1 4 0.25 1 0 0.5 1 
0.25 0.5 1 0.5 0.5 1 0.75 0.5 1 
1 0.5 1 1.25 0.5 1 1.5 0.5 1 
1.75 0.5 1 2 0.5 1 2.25 0.5 1 
2.5 0.5 1 2.75 0.5 1 3 0.5 1 
3.25 0.5 1 3.5 0.5 1 3.75 0.5 1 
4 0.5 1 0 0.75 1 0.25 0.75 1 
0.5 0.75 1 0.75 0.75 1 1 0.75 1 
1.25 0.75 1 1.5 0.75 1 1.75 0.75 1 
2 0.75 1 2.25 0.75 1 2.5 0.75 1 
2.75 0.75 1 3 0.75 1 3.25 0.75 1 
3.5 0.75 1 3.75 0.75 1 4 0.75 1 
0 1 1 0.25 1 1 0.5 1 1 
0.75 1 1 1 1 1 1.25 1 1 
1.5 1 1 1.75 1 1 2 1 1 
2.25 1 1 2.5 1 1 2.75 1 1 
3 1 1 3.25 1 1 3.5 1 1 
3.75 1 1 4 1 1 0.125 0.125 0.125 
0.375 0.125 0.125 0.625 0.125 0.125 0.875 0.125 0.125 
1.125 0.125 0.125 1.375 0.125 0.125 1.625 0.125 0.125 
1.875 0.125 0.125 2.125 0.125 0.125 2.375 0.125 0.125 
2.625 0.125 0.125 2.875 0.125 0.125 3.125 0.125 0.125 
3.375 0.125 0.125 3.625 0.125 0.125 3.875 0.125 0.125 
0.125 0.375 0.125 0.375 0.375 0.125 0.625 0.375 0.125 
0.875 0.375 0.125 1.125 0.375 0.125 1.375 0.375 0.125 
1.625 0.375 0.125 1.875 0.375 0.125 2.125 0.375 0.125 
2.375 0.375 0.125 2.625 0.375 0.125 2.875 0.375 0.125 
3.125 0.375 0.125 3.375 0.375 0.125 3.625 0.375 0.125 
3.875 0.375 0.125 0.125 0.625 0.125 0.375 0.625 0.125 
0.625 0.625 0.125 0.875 0.625 0.125 1.125 0.625 0.125 
1.375 0.625 0.125 1.625 0.625 0.125 1.875 0.625 0.125 
2.125 0.625 0.125 2.375 0.625 0.125 2.625 0.625 0.125 
2.875 0.625 0.125 3.125 0.625 0.125 3.375 0.625 0.125 
3.625 0.625 0.125 3.875 0.625 0.125 0.125 0.875 0.125 
0.375 0.875 0.125 0.625 0.875 0.125 0.875 0.875 0.125 
1.125 0.875 0.125 1.375 0.875 0.125 1.625 0.875 0.125 
1.875 0.875 0.125 2.125 0.875 0.125 2.375 0.875 0.125 
2.625 0.875 0.125 2.875 0.875 0.125 3.125 0.875 0.125 
3.375 0.875 0.125 3.625 0.875 0.125 3.875 0.875 0.125 
0.125 0.125 0.375 0.375 0.125 0.375 0.625 0.125 0.375 
0.875 0.125 0.375 1.125 0.125 0.375 1.375 0.125 0.375 
1.625 0.125 0.375 1.875 0.125 0.375 2.125 0.125 0.375 
2.375 0.125 0.375 2.625 0.125 0.375 2.875 0.125 0.375 
3.125 0.125 0.375 3.375 0.125 0.375 3.625 0.125 0.375 
3.875 0.125 0.375 0.125 0.375 0.375 0.375 0.375 0.375 
0.625 0.375 0.375 0.875 0.375 0.375 1.125 0.375 0.375 
1.375 0.375 0.375 1.625 0.375 0.375 1.875 0.375 0.375 
2.125 0.375 0.375 2.375 0.375 0.375 2.625 0.375 0.375 
2.875 0.375 0.375 3.125 0.375 0.375 3.375 0.375 0.375 
3.625 0.375 0.375 3.875 0.375 0.375 0.125 0.625 0.375 
0.375 0.625 0.375 0.625 0.625 0.375 0.875 0.625 0.375 
1.125 0.625 0.375 1.375 0.625 0.375 1.625 0.625 0.375 
1.875 0.625 0.375 2.125 0.625 0.375 2.375 0.625 0.375 
2.625 0.625 0.375 2.875 0.625 0.375 3.125 0.625 0.375 
3.375 0.625 0.375 3.625 0.625 0.375 3.875 0.625 0.375 
0.125 0.875 0.375 0.375 0.875 0.375 0.625 0.875 0.375 
0.875 0.875 0.375 1.125 0.875 0.375 1.375 0.875 0.375 
1.625 0.875 0.375 1.875 0.875 0.375 2.125 0.875 0.375 
2.375 0.875 0.375 2.625 0.875 0.375 2.875 0.875 0.375 
3.125 0.875 0.375 3.375 0.875 0.375 3.625 0.875 0.375 
3.875 0.875 0.375 0.125 0.125 0.625 0.375 0.125 0.625 
0.625 0.125 0.625 0.875 0.125 0.625 1.125 0.125 0.625 
1.375 0.125 0.625 1.625 0.125 0.625 1.875 0.125 0.625 
2.125 0.125 0.625 2.375 0.125 0.625 2.625 0.125 0.625 
2.875 0.125 0.625 3.125 0.125 0.625 3.375 0.125 0.625 
3.625 0.125 0.625 3.875 0.125 0.625 0.125 0.375 0.625 
0.375 0.375 0.625 0.625 0.375 0.625 0.875 0.375 0.625 
1.125 0.375 0.625 1.375 0.375 0.625 1.625 0.375 0.625 
1.875 0.375 0.625 2.125 0.375 0.625 2.375 0.375 0.625 
2.625 0.375 0.625 2.875 0.375 0.625 3.125 0.375 0.625 
3.375 0.375 0.625 3.625 0.375 0.625 3.875 0.375 0.625 
0.125 0.625 0.625 0.375 0.625 0.625 0.625 0.625 0.625 
0.875 0.625 0.625 1.125 0.625 0.625 1.375 0.625 0.625 
1.625 0.625 0.625 1.875 0.625 0.625 2.125 0.625 0.625 
2.375 0.625 0.625 2.625 0.625 0.625 2.875 0.625 0.625 
3.125 0.625 0.625 3.375 0.625 0.625 3.625 0.625 0.625 
3.875 0.625 0.625 0.125 0.875 0.625 0.375 0.875 0.625 
0.625 0.875 0.625 0.875 0.875 0.625 1.125 0.875 0.625 
1.375 0.875 0.625 1.625 0.875 0.625 1.875 0.875 0.625 
2.125 0.875 0.625 2.375 0.875 0.625 2.625 0.875 0.625 
2.875 0.875 0.625 3.125 0.875 0.625 3.375 0.875 0.625 
3.625 0.875 0.625 3.875 0.875 0.625 0.125 0.125 0.875 
0.375 0.125 0.875 0.625 0.125 0.875 0.875 0.125 0.875 
1.125 0.125 0.875 1.375 0.125 0.875 1.625 0.125 0.875 
1.875 0.125 0.875 2.125 0.125 0.875 2.375 0.125 0.875 
2.625 0.125 0.875 2.875 0.125 0.875 3.125 0.125 0.875 
3.375 0.125 0.875 3.625 0.125 0.875 3.875 0.125 0.875 
0.125 0.375 0.875 0.375 0.375 0.875 0.625 0.375 0.875 
0.875 0.375 0.875 1.125 0.375 0.875 1.375 0.375 0.875 
1.625 0.375 0.875 1.875 0.375 0.875 2.125 0.375 0.875 
2.375 0.375 0.875 2.625 0.375 0.875 2.875 0.375 0.875 
3.125 0.375 0.875 3.375 0.375 0.875 3.625 0.375 0.875 
3.875 0.375 0.875 0.125 0.625 0.875 0.375 0.625 0.875 
0.625 0.625 0.875 0.875 0.625 0.875 1.125 0.625 0.875 
1.375 0.625 0.875 1.625 0.625 0.875 1.875 0.625 0.875 
2.125 0.625 0.875 2.375 0.625 0.875 2.625 0.625 0.875 
2.875 0.625 0.875 3.125 0.625 0.875 3.375 0.625 0.875 
3.625 0.625 0.875 3.875 0.625 0.875 0.125 0.875 0.875 
0.375 0.875 0.875 0.625 0.875 0.875 0.875 0.875 0.875 
1.125 0.875 0.875 1.375 0.875 0.875 1.625 0.875 0.875 
1.875 0.875 0.875 2.125 0.875 0.875 2.375 0.875 0.875 
2.625 0.875 0.875 2.875 0.875 0.875 3.125 0.875 0.875 
3.375 0.875 0.875 3.625 0.875 0.875 3.875 0.875 0.875 

METADATA
INFORMATION 2
NAME L2_NORM_RANGE LOCATION vtkDataArray
DATA 2 0 4.24264 
NAME L2_NORM_FINITE_RANGE LOCATION vtkDataArray
DATA 2 0 4.24264 

CELLS 3073 12288
OFFSETS vtktypeint64
0 4 8 12 16 20 24 28 32 
36 40 44 48 52 56 60 64 68 
72 76 80 84 88 92 96 100 104 
108 112 116 120 124 128 132 136 140 
144 148 152 156 160 164 168 172 176 
[...]
POINT_DATA 681
FIELD FieldData 2
DistanceToCenter 1 681 float
8.48528 7.54983 6.63325 5.74456 4.89898 4.12311 3.4641 3 2.82843 
3 3.4641 4.12311 4.89898 5.74456 6.63325 7.54983 8.48528 8.30662 
7.34847 6.40312 5.47723 4.58258 3.74166 3 2.44949 2.23607 2.44949 
3 3.74166 4.58258 5.47723 6.40312 7.34847 8.30662 8.24621 7.28011 
6.32456 5.38516 4.47214 3.60555 2.82843 2.23607 2 2.23607 2.82843 
3.60555 4.47214 5.38516 6.32456 7.28011 8.24621 8.30662 7.34847 6.40312 
5.47723 4.58258 3.74166 3 2.44949 2.23607 2.44949 3 3.74166 
4.58258 5.47723 6.40312 7.34847 8.30662 8.48528 7.54983 6.63325 5.74456 
4.89898 4.12311 3.4641 3 2.82843 3 3.4641 4.12311 4.89898 
5.74456 6.63325 7.54983 8.48528 8.30662 7.34847 6.40312 5.47723 4.58258 
3.74166 3 2.44949 2.23607 2.44949 3 3.74166 4.58258 5.47723 
6.40312 7.34847 8.30662 8.12404 7.14143 6.16441 5.19615 4.24264 3.31662 
2.44949 1.73205 1.41421 1.73205 2.44949 3.31662 4.24264 5.19615 6.16441 
7.14143 8.12404 8.06226 7.07107 6.08276 5.09902 4.12311 3.16228 2.23607 
1.41421 1 1.41421 2.23607 3.16228 4.12311 5.09902 6.08276 7.07107 
8.06226 8.12404 7.14143 6.16441 5.19615 4.24264 3.31662 2.44949 1.73205 
1.41421 1.73205 2.44949 3.31662 4.24264 5.19615 6.16441 7.14143 8.12404 
8.30662 7.34847 6.40312 5.47723 4.58258 3.74166 3 2.44949 2.23607 
2.44949 3 3.74166 4.58258 5.47723 6.40312 7.34847 8.30662 8.24621 
7.28011 6.32456 5.38516 4.47214 3.60555 2.82843 2.23607 2 2.23607 
2.82843 3.60555 4.47214 5.38516 6.32456 7.28011 8.24621 8.06226 7.07107 
6.08276 5.09902 4.12311 3.16228 2.23607 1.41421 1 1.41421 2.23607 
3.16228 4.12311 5.09902 6.08276 7.07107 8.06226 8 7 6 
5 4 3 2 1 0 1 2 3 
4 5 6 7 8 8.06226 7.07107 6.08276 5.09902 
4.12311 3.16228 2.23607 1.41421 1 1.41421 2.23607 3.16228 4.12311 
5.09902 6.08276 7.07107 8.06226 8.24621 7.28011 6.32456 5.38516 4.47214 
3.60555 2.82843 2.23607 2 2.23607 2.82843 3.60555 4.47214 5.38516 
6.32456 7.28011 8.24621 8.30662 7.34847 6.40312 5.47723 4.58258 3.74166 
3 2.44949 2.23607 2.44949 3 3.74166 4.58258 5.47723 6.40312 
7.34847 8.30662 8.12404 7.14143 6.16441 5.19615 4.24264 3.31662 2.44949 
1.73205 1.41421 1.73205 2.44949 3.31662 4.24264 5.19615 6.16441 7.14143 
8.12404 8.06226 7.07107 6.08276 5.09902 4.12311 3.16228 2.23607 1.41421 
1 1.41421 2.23607 3.16228 4.12311 5.09902 6.08276 7.07107 8.06226 
8.12404 7.14143 6.16441 5.19615 4.24264 3.31662 2.44949 1.73205 1.41421 
1.73205 2.44949 3.31662 4.24264 5.19615 6.16441 7.14143 8.12404 8.30662 
7.34847 6.40312 5.47723 4.58258 3.74166 3 2.44949 2.23607 2.44949 
3 3.74166 4.58258 5.47723 6.40312 7.34847 8.30662 8.48528 7.54983 
6.63325 5.74456 4.89898 4.12311 3.4641 3 2.82843 3 3.4641 
4.12311 4.89898 5.74456 6.63325 7.54983 8.48528 8.30662 7.34847 6.40312 
5.47723 4.58258 3.74166 3 2.44949 2.23607 2.44949 3 3.74166 
4.58258 5.47723 6.40312 7.34847 8.30662 8.24621 7.28011 6.32456 5.38516 
4.47214 3.60555 2.82843 2.23607 2 2.23607 2.82843 3.60555 4.47214 
5.38516 6.32456 7.28011 8.24621 8.30662 7.34847 6.40312 5.47723 4.58258 
3.74166 3 2.44949 2.23607 2.44949 3 3.74166 4.58258 5.47723 
6.40312 7.34847 8.30662 8.48528 7.54983 6.63325 5.74456 4.89898 4.12311 
3.4641 3 2.82843 3 3.4641 4.12311 4.89898 5.74456 6.63325 
7.54983 8.48528 7.79423 6.8374 5.89491 4.97494 4.09268 3.27872 2.59808 
2.17945 2.17945 2.59808 3.27872 4.09268 4.97494 5.89491 6.8374 7.79423 
7.66486 6.68954 5.72276 4.7697 3.84057 2.95804 2.17945 1.65831 1.65831 
2.17945 2.95804 3.84057 4.7697 5.72276 6.68954 7.66486 7.66486 6.68954 
5.72276 4.7697 3.84057 2.95804 2.17945 1.65831 1.65831 2.17945 2.95804 
3.84057 4.7697 5.72276 6.68954 7.66486 7.79423 6.8374 5.89491 4.97494 
4.09268 3.27872 2.59808 2.17945 2.17945 2.59808 3.27872 4.09268 4.97494 
5.89491 6.8374 7.79423 7.66486 6.68954 5.72276 4.7697 3.84057 2.95804 
2.17945 1.65831 1.65831 2.17945 2.95804 3.84057 4.7697 5.72276 6.68954 
7.66486 7.53326 6.53835 5.54527 4.55522 3.57071 2.59808 1.65831 0.866025 
0.866025 1.65831 2.59808 3.57071 4.55522 5.54527 6.53835 7.53326 7.53326 
6.53835 5.54527 4.55522 3.57071 2.59808 1.65831 0.866025 0.866025 1.65831 
2.59808 3.57071 4.55522 5.54527 6.53835 7.53326 7.66486 6.68954 5.72276 
4.7697 3.84057 2.95804 2.17945 1.65831 1.65831 2.17945 2.95804 3.84057 
4.7697 5.72276 6.68954 7.66486 7.66486 6.68954 5.72276 4.7697 3.84057 
2.95804 2.17945 1.65831 1.65831 2.17945 2.95804 3.84057 4.7697 5.72276 
6.68954 7.66486 7.53326 6.53835 5.54527 4.55522 3.57071 2.59808 1.65831 
0.866025 0.866025 1.65831 2.59808 3.57071 4.55522 5.54527 6.53835 7.53326 
7.53326 6.53835 5.54527 4.55522 3.57071 2.59808 1.65831 0.866025 0.866025 
1.65831 2.59808 3.57071 4.55522 5.54527 6.53835 7.53326 7.66486 6.68954 
5.72276 4.7697 3.84057 2.95804 2.17945 1.65831 1.65831 2.17945 2.95804 
3.84057 4.7697 5.72276 6.68954 7.66486 7.79423 6.8374 5.89491 4.97494 
4.09268 3.27872 2.59808 2.17945 2.17945 2.59808 3.27872 4.09268 4.97494 
5.89491 6.8374 7.79423 7.66486 6.68954 5.72276 4.7697 3.84057 2.95804 
2.17945 1.65831 1.65831 2.17945 2.95804 3.84057 4.7697 5.72276 6.68954 
7.66486 7.66486 6.68954 5.72276 4.7697 3.84057 2.95804 2.17945 1.65831 
1.65831 2.17945 2.95804 3.84057 4.7697 5.72276 6.68954 7.66486 7.79423 
6.8374 5.89491 4.97494 4.09268 3.27872 2.59808 2.17945 2.17945 2.59808 
3.27872 4.09268 4.97494 5.89491 6.8374 7.79423 
Polynomial 1 681 float
1 2 3 4 5 6 7 8 9 
10 11 12 13 14 15 16 17 2 
3 4 5 6 7 8 9 10 11 
12 13 14 15 16 17 18 3 4 
5 6 7 8 9 10 11 12 13 
14 15 16 17 18 19 4 5 6 
7 8 9 10 11 12 13 14 15 
16 17 18 19 20 5 6 7 8 
9 10 11 12 13 14 15 16 17 
18 19 20 21 2 3 4 5 6 
7 8 9 10 11 12 13 14 15 
16 17 18 3 4 5 6 7 8 
9 10 11 12 13 14 15 16 17 
18 19 4 5 6 7 8 9 10 
11 12 13 14 15 16 17 18 19 
20 5 6 7 8 9 10 11 12 
13 14 15 16 17 18 19 20 21 
6 7 8 9 10 11 12 13 14 
15 16 17 18 19 20 21 22 3 
4 5 6 7 8 9 10 11 12 
13 14 15 16 17 18 19 4 5 
6 7 8 9 10 11 12 13 14 
15 16 17 18 19 20 5 6 7 
8 9 10 11 12 13 14 15 16 
17 18 19 20 21 6 7 8 9 
10 11 12 13 14 15 16 17 18 
19 20 21 22 7 8 9 10 11 
12 13 14 15 16 17 18 19 20 
21 22 23 4 5 6 7 8 9 
10 11 12 13 14 15 16 17 18 
19 20 5 6 7 8 9 10 11 
12 13 14 15 16 17 18 19 20 
21 6 7 8 9 10 11 12 13 
14 15 16 17 18 19 20 21 22 
7 8 9 10 11 12 13 14 15 
16 17 18 19 20 21 22 23 8 
9 10 11 12 13 14 15 16 17 
18 19 20 21 22 23 24 5 6 
7 8 9 10 11 12 13 14 15 
16 17 18 19 20 21 6 7 8 
9 10 11 12 13 14 15 16 17 
18 19 20 21 22 7 8 9 10 
11 12 13 14 15 16 17 18 19 
20 21 22 23 8 9 10 11 12 
13 14 15 16 17 18 19 20 21 
22 23 24 9 10 11 12 13 14 
15 16 17 18 19 20 21 22 23 
24 25 1 2 3 4 5 6 7 
8 9 10 11 12 13 14 15 16 
2 3 4 5 6 7 8 9 10 
11 12 13 14 15 16 17 3 4 
5 6 7 8 9 10 11 12 13 
14 15 16 17 18 4 5 6 7 
8 9 10 11 12 13 14 15 16 
17 18 19 2 3 4 5 6 7 
8 9 10 11 12 13 14 15 16 
17 3 4 5 6 7 8 9 10 
11 12 13 14 15 16 17 18 4 
5 6 7 8 9 10 11 12 13 
14 15 16 17 18 19 5 6 7 
8 9 10 11 12 13 14 15 16 
17 18 19 20 3 4 5 6 7 
8 9 10 11 12 13 14 15 16 
17 18 4 5 6 7 8 9 10 
11 12 13 14 15 16 17 18 19 
5 6 7 8 9 10 11 12 13 
14 15 16 17 18 19 20 6 7 
8 9 10 11 12 13 14 15 16 
17 18 19 20 21 4 5 6 7 
8 9 10 11 12 13 14 15 16 
17 18 19 5 6 7 8 9 10 
11 12 13 14 15 16 17 18 19 
20 6 7 8 9 10 11 12 13 
14 15 16 17 18 19 20 21 7 
8 9 10 11 12 13 14 15 16 
17 18 19 20 21 22 
