# vtk DataFile Version 5.1
vtk output
ASCII

DATASET UNSTRUCTURED_GRID
POINTS 17261 float
0.175 0 0
0.176191 -0.0653299 -0.0669156
0.240466 -0.0983094 -0.097679
0.324369 -0.117615 -0.117295
0.411096 -0.126678 -0.126871
0.497767 -0.128908 -0.129441
0.584668 -0.12512 -0.12604
0.672164 -0.113941 -0.115574
0.754512 -0.092499 -0.095341
0.809458 -0.0592465 -0.0606037
0.826 0 0
0.175 0.1 0
0.200073 0.0521896 -0.0708774
0.264339 0.0134626 -0.107883
0.339441 -0.00591529 -0.123179
0.417671 -0.0150406 -0.13052
0.496989 -0.0173392 -0.1327
0.576309 -0.0134907 -0.130205
0.654601 -0.00228075 -0.122165
0.728148 0.0183385 -0.104328
0.783911 0.050487 -0.069264
0.826 0.1 0
0.175 0.2 0
0.19809 0.165411 -0.0689714
0.271363 0.13593 -0.1144
0.34751 0.1164 -0.132698
0.422338 0.10667 -0.139638
0.496704 0.10419 -0.141325
0.571073 0.108006 -0.138675
0.64555 0.11874 -0.130021
0.71821 0.137767 -0.110223
0.777502 0.167427 -0.0712584
0.826 0.2 0
0.175 0.3 0
0.197866 0.276888 -0.0704989
0.27202 0.257897 -0.118718
0.349441 0.243458 -0.139487
0.423936 0.235617 -0.147744
0.496795 0.233472 -0.149651
0.569492 0.236604 -0.146536
0.64323 0.245033 -0.136633
0.7166 0.259093 -0.114626
0.777452 0.279514 -0.0728186
0.826 0.3 0
0.175 0.4 0
0.197567 0.387971 -0.0715199
0.271789 0.378889 -0.121517
0.349674 0.371254 -0.143582
0.424386 0.36711 -0.152788
0.497126 0.366161 -0.155006
0.569662 0.368128 -0.151526
0.643536 0.372871 -0.140618
0.717308 0.380212 -0.11709
0.778116 0.390526 -0.0737965
0.826 0.4 0
0.175 0.5 0
0.197533 0.498926 -0.0721827
0.271868 0.499416 -0.122658
0.350031 0.498933 -0.145094
0.424936 0.499169 -0.154572
0.49777 0.499791 -0.156851
0.570321 0.500539 -0.153161
0.644273 0.501138 -0.141891
0.718018 0.50132 -0.117864
0.778404 0.501665 -0.0742036
0.826 0.5 0
0.175 0.6 0
0.197948 0.609378 -0.0723353
0.272653 0.619491 -0.122093
0.35098 0.626116 -0.144047
0.425974 0.630936 -0.153121
0.498805 0.633383 -0.155126
0.571271 0.633147 -0.151424
0.644937 0.629757 -0.140322
0.718143 0.622749 -0.116726
0.778275 0.612999 -0.0736987
0.826 0.6 0
0.175 0.7 0
0.19884 0.719504 -0.0727067
0.273719 0.73881 -0.119888
0.352018 0.752502 -0.140533
0.427202 0.761658 -0.148557
0.500297 0.765981 -0.149961
0.572816 0.765301 -0.146237
0.646052 0.758651 -0.135836
0.718454 0.744922 -0.113533
0.777858 0.724861 -0.0722943
0.826 0.7 0
0.175 0.8 0
0.199356 0.829412 -0.0722106
0.273239 0.857501 -0.116498
0.351206 0.877117 -0.134952
0.427353 0.889405 -0.141422
0.502056 0.895303 -0.141835
0.576007 0.894824 -0.137763
0.649559 0.886971 -0.128091
0.720766 0.868663 -0.10813
0.778215 0.837942 -0.0699278
0.826 0.8 0
0.175 0.9 0
0.194745 0.937363 -0.068819
0.266834 0.974178 -0.112724
0.345238 0.997618 -0.128865
0.423945 1.01097 -0.13406
0.502891 1.01741 -0.133418
0.581532 1.01733 -0.128033
0.658455 1.00999 -0.117364
0.729486 0.99268 -0.0991446
0.78337 0.955295 -0.0665795
0.826 0.9 0
0.175 1 0
0.181373 1.05372 -0.075334
0.245551 1.08753 -0.106527
0.328158 1.10977 -0.124451
0.414245 1.12297 -0.130751
0.500456 1.12937 -0.130332
0.586753 1.12981 -0.124237
0.673009 1.12345 -0.111245
0.755838 1.10569 -0.0892305
0.819163 1.07623 -0.0531433
0.826 1 0
0.175 0 0.1
0.197738 -0.0699888 0.0519994
0.263739 -0.108251 0.0139999
0.339616 -0.123516 -0.00579001
0.417966 -0.13045 -0.0152036
0.497283 -0.132268 -0.0177772
0.576635 -0.12944 -0.0142177
0.654944 -0.120994 -0.00335568
0.728198 -0.102776 0.0168808
0.782606 -0.0681814 0.0480408
0.826 0 0.1
0.175 0.1 0.1
0.248935 0.0421734 0.0431545
0.297066 0.00868568 0.00903835
0.356424 -0.00810184 -0.00789572
0.424814 -0.0163614 -0.0164431
0.496242 -0.0185872 -0.0189319
0.56728 -0.0153311 -0.0159475
0.634596 -0.00541748 -0.00630642
0.695121 0.0138666 0.0127833
0.751439 0.0494254 0.0482229
0.826 0.1 0.1
0.175 0.2 0.1
0.255215 0.163114 0.0380138
0.308972 0.134452 0.000204946
0.367371 0.116456 -0.017629
0.430633 0.107459 -0.0255981
0.496011 0.10517 -0.0275236
0.561128 0.10872 -0.0241308
0.623902 0.118856 -0.0137073
0.683233 0.137618 0.00734139
0.744964 0.167341 0.0454924
0.826 0.2 0.1
0.175 0.3 0.1
0.255961 0.276419 0.0346066
0.311487 0.257463 -0.00607098
0.370544 0.244084 -0.0256044
0.432866 0.23683 -0.0343585
0.49614 0.234925 -0.036316
0.559044 0.237923 -0.0323996
0.620485 0.245995 -0.0208409
0.680335 0.259787 0.0023057
0.74434 0.279597 0.0431434
0.826 0.3 0.1
0.175 0.4 0.1
0.256212 0.387962 0.0325445
0.311916 0.378326 -0.00979477
0.371379 0.371518 -0.0305093
0.433671 0.367803 -0.0399491
0.496462 0.366925 -0.0420744
0.558802 0.36885 -0.037782
0.620061 0.373363 -0.0253774
0.680223 0.380639 -0.000955633
0.744638 0.390589 0.0415136
0.826 0.4 0.1
0.175 0.5 0.1
0.256427 0.498955 0.0318279
0.312201 0.498368 -0.0111428
0.371887 0.498488 -0.0322249
0.43428 0.498856 -0.0418875
0.497043 0.499534 -0.0440221
0.55928 0.500216 -0.0395534
0.620436 0.50074 -0.026802
0.680497 0.501038 -0.00194299
0.744896 0.50142 0.0410168
0.826 0.5 0.1
0.175 0.6 0.1
0.256672 0.609656 0.0324277
0.312699 0.618004 -0.0100434
0.372553 0.625121 -0.0307852
0.435031 0.629795 -0.0401299
0.497848 0.632105 -0.0420595
0.560097 0.631809 -0.0375326
0.621132 0.628455 -0.0249359
0.680968 0.621796 -0.000449778
0.745039 0.612486 0.0417609
0.826 0.6 0.1
0.175 0.7 0.1
0.256872 0.720207 0.0344069
0.313219 0.737763 -0.00673875
0.372975 0.751456 -0.0263815
0.435622 0.760159 -0.0348484
0.498921 0.764169 -0.0362943
0.561576 0.763286 -0.0317745
0.622584 0.756832 -0.0197571
0.681912 0.743651 0.00354222
0.7452 0.724166 0.0439037
0.826 0.7 0.1
0.175 0.8 0.1
0.256375 0.831688 0.0376277
0.31174 0.858326 -0.00162347
0.370897 0.877384 -0.0195183
0.434715 0.888802 -0.0267862
0.500131 0.894045 -0.0275066
0.564846 0.893399 -0.0228047
0.626794 0.885797 -0.011439
0.685166 0.868118 0.00999963
0.745972 0.837633 0.0472282
0.826 0.8 0.1
0.175 0.9 0.1
0.249846 0.948459 0.0410506
0.302271 0.980111 0.00436106
0.362252 1.00045 -0.0124733
0.429873 1.01238 -0.0189158
0.500538 1.01806 -0.0189265
0.5712 1.01819 -0.0133569
0.638659 1.01183 -0.00134257
0.698245 0.99529 0.0191428
0.750277 0.958804 0.0508211
0.826 0.9 0.1
0.175 1 0.1
0.221221 1.06672 0.044425
0.27334 1.09817 0.00678484
0.343185 1.11626 -0.010784
0.419679 1.12691 -0.018245
0.498201 1.13258 -0.0182641
0.577056 1.13322 -0.0120809
0.655603 1.12818 0.00136354
0.733658 1.11242 0.0250571
0.805561 1.06864 0.0639641
0.826 1 0.1
0.175 0 0.2
0.198392 -0.0693784 0.164959
0.27145 -0.114563 0.13616
0.347756 -0.132708 0.116434
0.422657 -0.139445 0.106462
0.497029 -0.140925 0.103758
0.57136 -0.138039 0.107337
0.645643 -0.129123 0.117807
0.717428 -0.109019 0.136329
0.775209 -0.0709212 0.165307
0.826 0 0.2
0.175 0.1 0.2
0.255133 0.0376335 0.16373
0.309061 -6.91559e-06 0.134525
0.367405 -0.0177446 0.116448
0.430662 -0.0254995 0.10725
0.49603 -0.027204 0.104736
0.561063 -0.0235739 0.108039
0.623701 -0.0129162 0.117975
0.683005 0.00842405 0.136702
0.745138 0.0465592 0.166701
0.826 0.1 0.2
0.175 0.2 0.2
0.259773 0.160729 0.160906
0.323801 0.128919 0.129171
0.381054 0.109733 0.109835
0.438213 0.10076 0.100641
0.496535 0.098822 0.0984514
0.555163 0.102877 0.102278
0.61329 0.113836 0.113046
0.671981 0.1339 0.133067
0.738161 0.164425 0.163848
0.826 0.2 0.2
0.175 0.3 0.2
0.261025 0.275078 0.158303
0.327224 0.25476 0.124072
0.385318 0.240663 0.103263
0.441232 0.233197 0.0933842
0.497067 0.231377 0.0911833
0.553135 0.23466 0.0955335
0.609856 0.243263 0.10735
0.669274 0.2576 0.129025
0.737606 0.277515 0.161727
0.826 0.3 0.2
0.175 0.4 0.2
0.261363 0.387484 0.156583
0.328244 0.377297 0.120699
0.386628 0.370159 0.0988757
0.442327 0.366306 0.0884429
0.497535 0.365505 0.0861764
0.552939 0.367458 0.0908705
0.609355 0.372229 0.103441
0.668985 0.379621 0.126202
0.73786 0.389268 0.160313
0.826 0.4 0.2
0.175 0.5 0.2
0.261512 0.499036 0.155945
0.328715 0.498577 0.119485
0.387233 0.498508 0.0973059
0.442971 0.498895 0.0867297
0.498075 0.499519 0.0844823
0.553334 0.500168 0.0893354
0.609652 0.500683 0.102203
0.669255 0.500935 0.125352
0.738036 0.500734 0.159863
0.826 0.5 0.2
0.175 0.6 0.2
0.261725 0.610294 0.156467
0.329082 0.619402 0.120442
0.387723 0.626532 0.0986828
0.443553 0.631287 0.0883966
0.498774 0.633613 0.0863207
0.554058 0.633043 0.091181
0.610302 0.629417 0.103854
0.669622 0.622496 0.126628
0.738123 0.612528 0.160599
0.826 0.6 0.2
0.175 0.7 0.2
0.26198 0.721632 0.158001
0.329052 0.740837 0.123389
0.387575 0.75494 0.102719
0.443741 0.763841 0.093169
0.499618 0.76776 0.0914573
0.555484 0.766477 0.0962435
0.611782 0.759438 0.108374
0.670628 0.745542 0.130059
0.738336 0.725087 0.162484
0.826 0.7 0.2
0.175 0.8 0.2
0.261643 0.834138 0.160319
0.326811 0.864048 0.127635
0.384715 0.883969 0.10852
0.44226 0.895519 0.0999886
0.500572 0.90037 0.0987672
0.558907 0.899342 0.103611
0.616316 0.890918 0.11507
0.67415 0.871933 0.135194
0.73937 0.839554 0.165276
0.826 0.8 0.2
0.175 0.9 0.2
0.254969 0.951884 0.162329
0.315898 0.988715 0.131481
0.374444 1.01058 0.113649
0.436405 1.02191 0.105837
0.501069 1.0268 0.105131
0.566334 1.02606 0.110307
0.630059 1.01903 0.12178
0.689015 1.00124 0.140966
0.743952 0.962437 0.167835
0.826 0.9 0.2
0.175 1 0.2
0.226149 1.0698 0.162762
0.282625 1.10709 0.131153
0.352398 1.12724 0.112361
0.425442 1.13687 0.104329
0.499164 1.14102 0.103788
0.573762 1.14069 0.109624
0.649697 1.13432 0.122096
0.727753 1.1161 0.142033
0.801726 1.07087 0.171688
0.826 1 0.2
0.175 0 0.3
0.198449 -0.0706754 0.276304
0.272486 -0.118835 0.25798
0.349804 -0.139471 0.243444
0.424231 -0.147531 0.23544
0.497003 -0.149273 0.233149
0.569552 -0.14598 0.236092
0.642904 -0.135854 0.244301
0.715219 -0.113624 0.257927
0.774568 -0.0728107 0.277807
0.826 0 0.3
0.175 0.1 0.3
0.255862 0.0344644 0.276853
0.311623 -0.00605683 0.257464
0.370629 -0.0256033 0.244076
0.432885 -0.034217 0.23666
0.496096 -0.036006 0.234605
0.558892 -0.0318808 0.23741
0.620219 -0.020105 0.245351
0.68017 0.00331753 0.25922
0.744365 0.0440323 0.279027
0.826 0.1 0.3
0.175 0.2 0.3
0.260956 0.158209 0.275325
0.327177 0.123924 0.254932
0.385288 0.103238 0.240734
0.441205 0.0935262 0.233133
0.497023 0.0915334 0.231137
0.553068 0.096097 0.234227
[...]
POINT_DATA 17261
SCALARS Displacements float 1
LOOKUP_TABLE default
0.175 0.120626 0.144372 0.167885 0.17963 0.182694 0.178259 0.164666 0.140411 0.12402 0.174 0.175 0.13162 0.152535 0.167173 0.174877 0.177163 0.174341 0.165671 0.150717 0.143965 0.174 0.175 0.1248 0.149281 0.163875 0.169435 0.170772 0.168909 0.162707 0.150704 0.145411 0.174 0.175 0.122809 0.145098 0.158424 0.162931 0.163804 0.162551 0.157837 0.14754 0.144015 0.174 0.175 0.12157 0.142709 0.154628 0.158179 0.158682 0.157786 0.15394 0.144705 0.142799 0.174 0.175 0.121343 0.142163 0.153482 0.156573 0.156867 0.156011 0.152446 0.143579 0.142459 0.174 0.175 0.122124 0.143406 0.155018 0.15836 0.158682 0.157649 0.153648 0.144371 0.142889 0.174 0.175 0.124242 0.145992 0.158782 0.163128 0.163835 0.162445 0.157486 0.146825 0.144094 0.174 0.175 0.126298 0.149138 0.16365 0.169533 0.170892 0.168955 0.162836 0.150615 0.145468 0.174 0.175 0.122917 0.150585 0.167874 0.175671 0.177743 0.174643 0.166128 0.152943 0.145234 0.174 0.175 0.123219 0.145205 0.168319 0.18006 0.18364 0.180166 0.168354 0.145202 0.123167 0.174 0.175 0.129442 0.152239 0.167383 0.174963 0.177126 0.174202 0.165385 0.150424 0.145361 0.174 0.175 0.169579 0.161351 0.162823 0.166477 0.167994 0.16678 0.163375 0.161324 0.165254 0.174 0.175 0.171156 0.16165 0.159233 0.158988 0.158968 0.158907 0.159074 0.161591 0.167553 0.174 0.175 0.170752 0.159656 0.15453 0.152062 0.151102 0.151857 0.154407 0.159627 0.16697 0.174 0.175 0.170579 0.158272 0.151456 0.147499 0.145916 0.147144 0.15106 0.15784 0.166273 0.174 0.175 0.17064 0.157938 0.15051 0.145974 0.144053 0.145373 0.149699 0.157081 0.165947 0.174 0.175 0.170896 0.15854 0.151657 0.147483 0.145658 0.146695 0.150462 0.15727 0.166014 0.174 0.175 0.171229 0.160118 0.154743 0.151895 0.150649 0.151149 0.153509 0.158601 0.166415 0.174 0.175 0.171311 0.16191 0.159057 0.158637 0.158438 0.158241 0.158553 0.161018 0.16711 0.174 0.175 0.168158 0.16132 0.163143 0.166324 0.167574 0.166279 0.16291 0.161159 0.168206 0.174 0.175 0.149114 0.153966 0.166299 0.174575 0.177674 0.175601 0.167723 0.150521 0.122183 0.174 0.175 0.125388 0.14935 0.163937 0.169433 0.170679 0.168705 0.162429 0.150855 0.14767 0.174 0.175 0.171089 0.16181 0.159337 0.159037 0.158971 0.158882 0.159059 0.161495 0.167174 0.174 0.175 0.169109 0.159361 0.151154 0.145537 0.143392 0.144889 0.150013 0.158865 0.169601 0.174 0.175 0.168192 0.154911 0.141979 0.132399 0.128681 0.131829 0.14117 0.154676 0.168352 0.174 0.175 0.167571 0.152482 0.136459 0.123983 0.118961 0.123219 0.135319 0.151744 0.167271 0.174 0.175 0.167416 0.151829 0.134751 0.121152 0.115535 0.120102 0.133144 0.150557 0.166865 0.174 0.175 0.167798 0.152866 0.136618 0.123819 0.118551 0.122654 0.134741 0.151288 0.167074 0.174 0.175 0.168728 0.155536 0.141956 0.131916 0.127957 0.13102 0.140394 0.153957 0.167845 0.174 0.175 0.169907 0.159436 0.15032 0.14461 0.142557 0.14439 0.14994 0.158784 0.169034 0.174 0.175 0.167709 0.161237 0.158829 0.158282 0.158363 0.15833 0.158674 0.161407 0.171126 0.174 0.175 0.148902 0.151775 0.163148 0.168919 0.170716 0.169265 0.163221 0.148522 0.124427 0.174 0.175 0.123485 0.145402 0.158528 0.162851 0.163586 0.162239 0.15754 0.14788 0.146721 0.174 0.175 0.170656 0.15974 0.154571 0.152012 0.150961 0.151657 0.154197 0.159279 0.166717 0.174 0.175 0.168114 0.154896 0.141949 0.132309 0.128515 0.131623 0.140981 0.154565 0.16827 0.174 0.175 0.166275 0.147393 0.126914 0.110421 0.103804 0.110099 0.126711 0.147702 0.166351 0.174 0.175 0.165151 0.143027 0.117132 0.0947565 0.0852004 0.0944282 0.116897 0.143049 0.164817 0.174 0.175 0.164822 0.141701 0.113897 0.0890757 0.0780295 0.0885182 0.113328 0.141346 0.164275 0.174 0.175 0.165348 0.143368 0.11725 0.0944467 0.0846384 0.0937241 0.116342 0.142652 0.164715 0.174 0.175 0.166802 0.147903 0.126721 0.109685 0.102972 0.1094 0.126096 0.14707 0.165855 0.174 0.175 0.168712 0.154581 0.140719 0.131033 0.127648 0.13147 0.141323 0.154725 0.167813 0.174 0.175 0.167123 0.158804 0.15362 0.151095 0.150412 0.151458 0.154085 0.159391 0.170711 0.174 0.175 0.14768 0.147939 0.157569 0.162326 0.163554 0.162677 0.158216 0.145242 0.123175 0.174 0.175 0.122397 0.142878 0.154649 0.157984 0.158332 0.157361 0.153617 0.145269 0.145896 0.174 0.175 0.170431 0.158317 0.151418 0.147347 0.145636 0.146814 0.150742 0.157494 0.166019 0.174 0.175 0.167472 0.152372 0.136339 0.123749 0.118611 0.122853 0.135028 0.15157 0.167246 0.174 0.175 0.165148 0.142941 0.117032 0.0946049 0.0850052 0.0942172 0.116775 0.143024 0.164835 0.174 0.175 0.16364 0.137169 0.103608 0.0707167 0.0542091 0.0705013 0.103502 0.137061 0.163072 0.174 0.175 0.163201 0.135375 0.0989824 0.0608963 0.0387943 0.0604419 0.0984799 0.134818 0.162369 0.174 0.175 0.163838 0.137519 0.103754 0.0704679 0.0535689 0.0699286 0.102985 0.136639 0.16287 0.174 0.175 0.165642 0.143363 0.116782 0.0939649 0.0842163 0.0937669 0.116344 0.142401 0.164439 0.174 0.175 0.168026 0.151823 0.134943 0.122487 0.118018 0.123043 0.135763 0.15192 0.166831 0.174 0.175 0.166759 0.157434 0.150575 0.146658 0.145275 0.146953 0.150935 0.157867 0.17018 0.174 0.175 0.146737 0.14548 0.153701 0.157479 0.158263 0.157791 0.154272 0.142564 0.121604 0.174 0.175 0.122068 0.142276 0.153438 0.156302 0.156436 0.155512 0.152042 0.144224 0.145724 0.174 0.175 0.170483 0.157923 0.150422 0.14573 0.14369 0.144957 0.149346 0.15666 0.165751 0.174 0.175 0.167322 0.151669 0.134561 0.120837 0.115118 0.119653 0.132767 0.15034 0.166754 0.174 0.175 0.164791 0.141635 0.113824 0.0888762 0.0777696 0.0881814 0.113038 0.141186 0.16427 0.174 0.175 0.163219 0.135362 0.098959 0.0608654 0.0387121 0.0603825 0.0984533 0.134793 0.162392 0.174 0.175 0.162703 0.133369 0.0937377 0.0483502 0.00042102 0.0475668 0.0928832 0.132386 0.161659 0.174 0.175 0.163427 0.135728 0.0992105 0.0609243 0.0383342 0.0598698 0.0979438 0.134359 0.162186 0.174 0.175 0.165355 0.142099 0.113742 0.0884256 0.0774282 0.0880493 0.112829 0.140634 0.163864 0.174 0.175 0.167892 0.151162 0.1333 0.119781 0.114909 0.120189 0.133798 0.150778 0.166443 0.174 0.175 0.166774 0.15718 0.149748 0.145267 0.143731 0.145274 0.149696 0.157255 0.1699 0.174 0.175 0.146371 0.144668 0.152453 0.155727 0.156382 0.155845 0.152635 0.141327 0.120918 0.174 0.175 0.122585 0.14354 0.154987 0.158098 0.158276 0.157158 0.153227 0.14503 0.14619 0.174 0.175 0.170781 0.158541 0.151552 0.14723 0.145281 0.146255 0.150073 0.156872 0.165782 0.174 0.175 0.167677 0.152709 0.136458 0.12355 0.118165 0.122208 0.134349 0.151003 0.166909 0.174 0.175 0.165351 0.143288 0.117205 0.094367 0.0844622 0.09352 0.116125 0.142471 0.164597 0.174 0.175 0.163874 0.137509 0.103723 0.0704883 0.0536898 0.0699022 0.102971 0.136567 0.162826 0.174 0.175 0.163413 0.135727 0.0992222 0.0608899 0.0386945 0.0600628 0.0980702 0.134382 0.162169 0.174 0.175 0.164087 0.137948 0.104216 0.070802 0.0537273 0.069718 0.102597 0.136126 0.162604 0.174 0.175 0.165888 0.143905 0.11742 0.0944252 0.0845689 0.093782 0.116116 0.141989 0.164147 0.174 0.175 0.168356 0.152398 0.135551 0.122981 0.118489 0.123138 0.135536 0.151462 0.166563 0.174 0.175 0.167147 0.158136 0.151168 0.147013 0.14561 0.146974 0.150638 0.15762 0.169878 0.174 0.175 0.146679 0.145705 0.154006 0.157523 0.158219 0.157558 0.153779 0.141923 0.121285 0.174 0.175 0.123949 0.14615 0.158848 0.162936 0.163506 0.162044 0.157167 0.147522 0.147342 0.174 0.175 0.171341 0.160051 0.154593 0.151726 0.150346 0.150808 0.153153 0.158249 0.166189 0.174 0.175 0.168631 0.155518 0.141932 0.131797 0.127722 0.130687 0.140028 0.153631 0.167599 0.174 0.175 0.166782 0.147828 0.126746 0.10972 0.103024 0.109291 0.125985 0.146953 0.165708 0.174 0.175 0.165637 0.14342 0.116977 0.0941161 0.0845825 0.0938192 0.116495 0.142401 0.164369 0.174 0.175 0.165301 0.142138 0.113873 0.0887457 0.077857 0.0883702 0.113037 0.140665 0.163779 0.174 0.175 0.165888 0.14398 0.117504 0.0946804 0.0849191 0.0938554 0.116141 0.14199 0.164103 0.174 0.175 0.16745 0.148712 0.127373 0.110227 0.103422 0.109612 0.125923 0.146409 0.165317 0.174 0.175 0.169429 0.15545 0.141595 0.131818 0.128282 0.131698 0.141035 0.153923 0.167154 0.174 0.175 0.167865 0.159954 0.154503 0.15178 0.150966 0.151593 0.153836 0.15904 0.169982 0.174 0.175 0.147269 0.148445 0.157859 0.162345 0.163435 0.162365 0.157596 0.144375 0.122446 0.174 0.175 0.124959 0.149464 0.163753 0.16947 0.17071 0.168732 0.162665 0.151383 0.148312 0.174 0.175 0.171652 0.161849 0.158981 0.158523 0.158246 0.157979 0.158282 0.160613 0.166686 0.174 0.175 0.169683 0.159442 0.150425 0.144553 0.142479 0.144193 0.149716 0.158574 0.168788 0.174 0.175 0.168637 0.154536 0.140889 0.131214 0.127818 0.131425 0.141152 0.154603 0.167633 0.174 0.175 0.167994 0.151913 0.135225 0.122816 0.118235 0.123218 0.135784 0.151929 0.166744 0.174 0.175 0.167878 0.151387 0.13368 0.120168 0.115209 0.120429 0.133811 0.150778 0.166371 0.174 0.175 0.168347 0.15263 0.135835 0.123386 0.11862 0.123235 0.135464 0.151413 0.16646 0.174 0.175 0.169395 0.155536 0.141658 0.131998 0.128405 0.131722 0.141123 0.153964 0.167135 0.174 0.175 0.170723 0.159746 0.150584 0.145011 0.143155 0.144965 0.150382 0.158539 0.168161 0.174 0.175 0.168375 0.162179 0.159424 0.159027 0.158884 0.158561 0.158685 0.161115 0.170454 0.174 0.175 0.148606 0.151641 0.162828 0.168856 0.170459 0.168854 0.163024 0.148239 0.124341 0.174 0.175 0.122259 0.151016 0.168153 0.175792 0.17767 0.174522 0.166026 0.153574 0.148271 0.174 0.175 0.16812 0.16133 0.163095 0.166248 0.167482 0.166098 0.162702 0.160722 0.166865 0.174 0.175 0.167771 0.161509 0.158872 0.158285 0.158377 0.158216 0.158493 0.161049 0.170323 0.174 0.175 0.167239 0.159259 0.153934 0.151121 0.150447 0.151425 0.154 0.159165 0.17019 0.174 0.175 0.16699 0.158061 0.150922 0.146768 0.145283 0.14703 0.150896 0.157734 0.169755 0.174 0.175 0.166971 0.157959 0.150203 0.145558 0.143806 0.145415 0.149681 0.157063 0.169516 0.174 0.175 0.167356 0.158814 0.151518 0.147411 0.145742 0.147012 0.150577 0.157369 0.16946 0.174 0.175 0.168139 0.160622 0.154812 0.152067 0.151023 0.151713 0.153809 0.158731 0.16965 0.174 0.175 0.168713 0.162597 0.159523 0.159089 0.15891 0.158552 0.158683 0.160824 0.170148 0.174 0.175 0.166654 0.162306 0.163938 0.166895 0.167705 0.165889 0.162206 0.160622 0.169076 0.174 0.175 0.14704 0.1513 0.165841 0.174312 0.176927 0.174336 0.166627 0.151194 0.128191 0.174 0.175 0.123516 0.145781 0.168813 0.180388 0.183702 0.18012 0.168372 0.145352 0.123383 0.174 0.175 0.146109 0.153501 0.166326 0.17471 0.177636 0.175566 0.167657 0.15029 0.123183 0.174 0.175 0.145815 0.151128 0.16305 0.168949 0.170814 0.169275 0.163249 0.148795 0.125426 0.174 0.175 0.144664 0.147312 0.15773 0.162427 0.163616 0.162747 0.158384 0.145629 0.124074 0.174 0.175 0.143474 0.144833 0.153843 0.157623 0.158398 0.157946 0.154508 0.143073 0.122495 0.174 0.175 0.143078 0.144202 0.152633 0.155955 0.156672 0.156126 0.152968 0.141868 0.121849 0.174 0.175 0.143493 0.145296 0.154224 0.157798 0.158539 0.157744 0.154001 0.142337 0.122105 0.174 0.175 0.144692 0.148131 0.158103 0.16264 0.163677 0.162612 0.157905 0.144809 0.123195 0.174 0.175 0.146244 0.151258 0.162991 0.169008 0.170707 0.169111 0.163361 0.148784 0.125215 0.174 0.175 0.145296 0.151132 0.166044 0.17451 0.177154 0.174494 0.166832 0.151766 0.129349 0.174 0.175 0.123164 0.140497 0.164997 0.178291 0.182573 0.179184 0.167289 0.143716 0.120179 0.174 0.174122 0.150866 0.160742 0.170206 0.174817 0.174554 0.169425 0.15987 0.151713 0.164729 0.173176 0.157468 0.161593 0.16598 0.168344 0.168372 0.166013 0.16177 0.160303 0.168719 0.173415 0.155249 0.15862 0.160848 0.161658 0.161663 0.160914 0.159428 0.16081 0.169167 0.1733 0.153829 0.15572 0.156287 0.155985 0.155894 0.15624 0.156512 0.159644 0.169157 0.1732 0.153145 0.154209 0.153821 0.152823 0.152665 0.153542 0.154723 0.158998 0.169032 0.173226 0.153239 0.154357 0.153888 0.152819 0.152534 0.153321 0.154505 0.15874 0.169037 0.173154 0.154072 0.156066 0.156473 0.155897 0.155522 0.155658 0.155902 0.159211 0.169064 0.173603 0.155593 0.158937 0.161027 0.161512 0.161153 0.160207 0.158833 0.160503 0.16918 0.172478 0.155492 0.161578 0.166218 0.168384 0.168115 0.165668 0.161875 0.161861 0.16948 0.169825 0.152649 0.161938 0.170672 0.175161 0.175175 0.170676 0.1619 0.152146 0.168707 0.173104 0.157562 0.161911 0.166104 0.168382 0.168304 0.165841 0.161434 0.159833 0.168638 0.173707 0.166826 0.160611 0.158519 0.157792 0.157746 0.158386 0.159831 0.163812 0.171164 0.173341 0.165121 0.155791 0.149704 0.146489 0.146355 0.149334 0.154937 0.163144 0.171556 0.173163 0.163726 0.152008 0.143076 0.137875 0.137594 0.142367 0.150818 0.161703 0.171518 0.173089 0.163132 0.150213 0.139799 0.133452 0.133001 0.138657 0.14854 0.160746 0.171427 0.173104 0.16321 0.15035 0.139856 0.133355 0.132762 0.138329 0.14827 0.160563 0.171438 0.173203 0.163987 0.152278 0.143175 0.137587 0.136955 0.141519 0.150075 0.161252 0.171516 0.173301 0.165236 0.155932 0.149657 0.146075 0.145566 0.148348 0.154158 0.162838 0.171795 0.17308 0.16566 0.160199 0.15815 0.157329 0.157241 0.157867 0.159633 0.165043 0.172168 0.17036 0.16225 0.162153 0.165745 0.16809 0.168281 0.166043 0.16135 0.15512 0.171347 0.17324 0.155502 0.159009 0.161046 0.161648 0.161513 0.16063 0.159079 0.160395 0.169033 0.173459 0.165115 0.155794 0.149684 0.146424 0.146229 0.149185 0.154834 0.1631 0.171452 0.172797 0.161138 0.146254 0.133655 0.126485 0.126438 0.133477 0.145922 0.160698 0.171615 0.172414 0.158317 0.138905 0.120926 0.109866 0.109772 0.120689 0.138572 0.157876 0.17135 0.172228 0.157016 0.135362 0.11437 0.100823 0.100585 0.113785 0.134651 0.156326 0.171147 0.172229 0.157117 0.135478 0.114366 0.100628 0.10021 0.113407 0.134366 0.156196 0.171136 0.172426 0.158567 0.139103 0.120814 0.109333 0.108902 0.11977 0.137871 0.157493 0.171303 0.172712 0.161241 0.146102 0.133162 0.125716 0.125531 0.132627 0.145368 0.160415 0.171717 0.172684 0.163554 0.154681 0.14858 0.145526 0.145735 0.149063 0.155113 0.164456 0.172391 0.170261 0.16084 0.158989 0.160205 0.16102 0.161268 0.16063 0.158407 0.154694 0.172156 0.173025 0.153999 0.156038 0.156403 0.155876 0.155657 0.155849 0.156109 0.159368 0.16897 0.173297 0.163716 0.151927 0.142952 0.137678 0.137338 0.142085 0.150657 0.161595 0.171367 0.172433 0.158299 0.13888 0.120833 0.109728 0.109624 0.120562 0.138529 0.157874 0.171329 0.1719 0.154229 0.1281 0.101231 0.0826858 0.0826775 0.101218 0.128027 0.153918 0.170926 0.171642 0.152272 0.122629 0.0901747 0.0653095 0.0652058 0.0899157 0.122304 0.151768 0.170653 0.171641 0.152383 0.122733 0.0901491 0.06503 0.0647162 0.0895188 0.122045 0.15166 0.170637 0.171911 0.154439 0.128222 0.101012 0.0819672 0.081672 0.100322 0.127406 0.153569 0.170915 0.172327 0.158295 0.138523 0.120107 0.108808 0.108755 0.119945 0.138178 0.157676 0.171442 0.172505 0.161934 0.150496 0.141582 0.13668 0.137 0.142346 0.151325 0.163146 0.172305 0.17011 0.159674 0.156022 0.155538 0.155261 0.155496 0.155913 0.155439 0.153337 0.172092 0.172892 0.153365 0.154502 0.153885 0.152657 0.152303 0.153061 0.154323 0.158565 0.168998 0.173243 0.163058 0.150065 0.13959 0.133161 0.132643 0.138287 0.148343 0.160662 0.171273 0.172243 0.156978 0.135286 0.114204 0.100573 0.10031 0.113574 0.134562 0.156289 0.1711 0.17164 0.152268 0.122597 0.0901282 0.065251 0.065115 0.0898722 0.122275 0.15176 0.170633 0.171343 0.149953 0.115945 0.0754888 0.0365301 0.0362387 0.0750463 0.115422 0.149259 0.170341 0.171356 0.150056 0.11607 0.0754904 0.0361867 0.035586 0.0746442 0.115163 0.149134 0.170328 0.171665 0.152478 0.122751 0.089975 0.0646314 0.0642251 0.0891072 0.12172 0.15142 0.170631 0.172145 0.156988 0.134904 0.11353 0.0998175 0.0997091 0.113265 0.134411 0.156148 0.171242 0.17233 0.161278 0.148629 0.1383 0.132325 0.132596 0.138852 0.149269 0.162315 0.172194 0.170208 0.159072 0.154549 0.153106 0.152191 0.152327 0.15325 0.153642 0.152488 0.17208 0.172878 0.153457 0.154666 0.153961 0.152582 0.152099 0.152781 0.154044 0.158372 0.168886 0.173223 0.163184 0.150164 0.139602 0.133037 0.132379 0.137948 0.14804 0.160471 0.171307 0.172258 0.157079 0.135385 0.114196 0.10041 0.100004 0.113246 0.134261 0.156095 0.17106 0.17165 0.152355 0.122692 0.090115 0.065028 0.0647625 0.0895255 0.122028 0.151586 0.170599 0.171348 0.150052 0.116051 0.0755208 0.0363674 0.0358692 0.0747856 0.115227 0.149127 0.17031 0.17137 0.150171 0.116233 0.0756522 0.0363131 0.035495 0.0744737 0.114988 0.14898 0.170295 0.171679 0.152636 0.122971 0.0902502 0.0648537 0.0642662 0.089013 0.12155 0.151272 0.170608 0.17218 0.157161 0.135189 0.113825 0.100066 0.0998422 0.113215 0.134269 0.155996 0.171218 0.172368 0.161421 0.148947 0.13855 0.132509 0.132638 0.138757 0.14912 0.162191 0.172175 0.170169 0.159269 0.154823 0.153309 0.152327 0.152342 0.153152 0.153491 0.152315 0.172122 0.172899 0.154331 0.156437 0.156562 0.155697 0.155144 0.155194 0.155508 0.158972 0.168946 0.173277 0.163987 0.152152 0.142976 0.137354 0.136654 0.141202 0.149863 0.161124 0.171425 0.172419 0.15855 0.139027 0.120707 0.109233 0.108855 0.119703 0.137794 0.157386 0.171228 0.171876 0.154441 0.128241 0.101058 0.0821392 0.0819057 0.10049 0.127465 0.153523 0.170841 0.171625 0.152515 0.122813 0.09012 0.0649874 0.0646638 0.08941 0.121853 0.151422 0.170582 0.171655 0.152659 0.123022 0.0903516 0.0651145 0.0645799 0.0892156 0.121638 0.151262 0.170591 0.171957 0.154812 0.128717 0.101518 0.082411 0.0818021 0.100156 0.127073 0.153206 0.170841 0.172389 0.15874 0.139172 0.120831 0.10936 0.108982 0.119823 0.137826 0.157288 0.171385 0.172465 0.162407 0.151236 0.142336 0.137244 0.137181 0.142104 0.150915 0.162782 0.172278 0.170068 0.160044 0.156667 0.156102 0.155628 0.155522 0.155641 0.155 0.153137 0.172324 0.172904 0.155589 0.159275 0.161115 0.161414 0.160898 0.159862 0.158475 0.160129 0.169112 0.173299 0.165251 0.155838 0.14955 0.14596 0.14543 0.14818 0.154013 0.162724 0.17163 0.172638 0.161178 0.146059 0.133157 0.125768 0.125627 0.132698 0.145342 0.160308 0.171601 0.172245 0.158272 0.138533 0.120251 0.109082 0.10911 0.120212 0.138265 0.157607 0.171343 0.172075 0.156997 0.135007 0.113781 0.100241 0.100207 0.11362 0.134556 0.156125 0.171168 0.172114 0.157186 0.135286 0.114103 0.100463 0.100238 0.113456 0.134344 0.155982 0.171165 0.172346 0.158739 0.139223 0.120988 0.109622 0.109183 0.119945 0.137867 0.157281 0.171339 0.172651 0.161582 0.146586 0.133741 0.126207 0.125832 0.132715 0.145229 0.160127 0.171749 0.172539 0.163933 0.155418 0.149472 0.146137 0.145926 0.14885 0.154758 0.164205 0.172425 0.170176 0.161215 0.159621 0.160825 0.161446 0.161273 0.160252 0.15791 0.154427 0.172488 0.172084 0.155851 0.161907 0.166369 0.168338 0.16798 0.165448 0.1617 0.161432 0.169252 0.173055 0.16574 0.160144 0.158165 0.157318 0.157171 0.157795 0.159605 0.164882 0.171938 0.172658 0.163542 0.154694 0.148662 0.145628 0.145843 0.149176 0.155219 0.164283 0.172181 0.172405 0.162015 0.150596 0.141793 0.136906 0.137254 0.142573 0.151481 0.162994 0.172116 0.172333 0.161407 0.148824 0.13862 0.132639 0.132912 0.139138 0.149462 0.162185 0.172023 0.17236 0.161632 0.149162 0.138962 0.132899 0.132951 0.138996 0.149224 0.162058 0.172044 0.172501 0.162576 0.15144 0.142645 0.137495 0.137377 0.14228 0.151074 0.162698 0.172128 0.172631 0.164114 0.155534 0.149596 0.146271 0.146039 0.14899 0.154951 0.164106 0.172327 0.172257 0.164712 0.160461 0.158645 0.157571 0.157314 0.157794 0.159725 0.165957 0.172692 0.169794 0.160928 0.162101 0.166089 0.168291 0.167968 0.165412 0.160941 0.156348 0.172484 0.169555 0.152871 0.162355 0.170871 0.175167 0.175025 0.170443 0.161766 0.152525 0.168728 0.17135 0.162332 0.162211 0.165842 0.168113 0.168211 0.165956 0.161234 0.155337 0.171485 0.17117 0.161098 0.159243 0.16041 0.161108 0.161283 0.160614 0.158512 0.154918 0.171974 0.171019 0.160021 0.156363 0.155854 0.155399 0.155547 0.156032 0.155662 0.153709 0.172015 0.170782 0.159596 0.155005 0.15353 0.152447 0.152439 0.153404 0.153822 0.152805 0.172012 0.170697 0.159784 0.155276 0.15378 0.152691 0.152522 0.153284 0.153657 0.152651 0.172151 0.170694 0.16065 0.157125 0.156502 0.155953 0.155706 0.155752 0.155165 0.15337 0.172236 0.170679 0.161792 0.15999 0.161136 0.1617 0.161401 0.16039