# vtk DataFile Version 5.1
vtk output
ASCII

DATASET UNSTRUCTURED_GRID
POINTS 56791 float
0.165667 0 0
0.171499 -0.0571123 -0.0570125
0.251463 -0.085306 -0.085107
0.337313 -0.0968529 -0.09708
0.419698 -0.10082 -0.10124
0.500314 -0.10163 -0.102119
0.581094 -0.100249 -0.100736
0.664053 -0.0954213 -0.0957965
0.751931 -0.0823655 -0.0824271
0.834333 -0.0336552 -0.0357546
0.834333 0 0
0.165667 0.1 0
0.197582 0.055716 -0.067628
0.270076 0.026504 -0.0932548
0.346708 0.015 -0.101732
0.423571 0.0111903 -0.104519
0.500132 0.010455 -0.105032
0.576734 0.0115624 -0.104045
0.653683 0.0157779 -0.100648
0.730274 0.0278523 -0.0916177
0.802458 0.0597663 -0.0656754
0.834333 0.1 0
0.165667 0.2 0
0.199579 0.168882 -0.0710354
0.276078 0.14621 -0.101613
0.352729 0.13397 -0.111046
0.426911 0.128918 -0.113285
0.500046 0.127737 -0.113466
0.573152 0.1293 -0.112813
0.647274 0.134881 -0.110086
0.723884 0.14787 -0.100238
0.801256 0.172097 -0.0692373
0.834333 0.2 0
0.165667 0.3 0
0.198412 0.279739 -0.0739134
0.27646 0.264746 -0.107725
0.354261 0.255673 -0.11903
0.428141 0.251248 -0.121813
0.500023 0.250062 -0.122086
0.571904 0.251581 -0.121386
0.645739 0.256473 -0.118142
0.723649 0.266264 -0.106329
0.802779 0.282503 -0.071235
0.834333 0.3 0
0.165667 0.4 0
0.197128 0.389736 -0.0755143
0.275589 0.382322 -0.111533
0.354136 0.3777 -0.124095
0.428282 0.37529 -0.127463
0.500015 0.374667 -0.127913
0.57173 0.375619 -0.127123
0.645899 0.378418 -0.123323
0.724593 0.3836 -0.110083
0.804557 0.39229 -0.0726311
0.834333 0.4 0
0.165667 0.5 0
0.196535 0.499548 -0.0760299
0.275083 0.499501 -0.112762
0.353895 0.499661 -0.125768
0.428203 0.499808 -0.129382
0.499989 0.499973 -0.129917
0.571747 0.500151 -0.129087
0.646091 0.500381 -0.1251
0.725044 0.50065 -0.111379
0.805169 0.501814 -0.0730815
0.834333 0.5 0
0.165667 0.6 0
0.197151 0.609256 -0.0747615
0.275343 0.616604 -0.111243
0.353966 0.621524 -0.123934
0.42822 0.624261 -0.127388
0.500002 0.625235 -0.127874
0.571737 0.624678 -0.127087
0.645914 0.622402 -0.123284
0.724507 0.617816 -0.109905
0.804069 0.61172 -0.0725748
0.834333 0.6 0
0.165667 0.7 0
0.198238 0.718528 -0.0725176
0.276123 0.733645 -0.107258
0.354127 0.743259 -0.118795
0.428128 0.748195 -0.121684
0.500071 0.749863 -0.121984
0.571957 0.748816 -0.121288
0.645824 0.744507 -0.117987
0.723513 0.735378 -0.10581
0.802755 0.721093 -0.0714038
0.834333 0.7 0
0.165667 0.8 0
0.19963 0.828749 -0.0695569
0.275929 0.851625 -0.101163
0.352736 0.864658 -0.110877
0.427023 0.870393 -0.113164
0.500206 0.872191 -0.113316
0.573368 0.871198 -0.112592
0.647565 0.866377 -0.109705
0.723951 0.854144 -0.0993664
0.801217 0.832354 -0.0691117
0.834333 0.8 0
0.165667 0.9 0
0.197338 0.93978 -0.0661822
0.269906 0.970694 -0.0930423
0.346784 0.983552 -0.101644
0.423621 0.988137 -0.10436
0.500232 0.989484 -0.104787
0.576877 0.988927 -0.103631
0.653988 0.985448 -0.0999871
0.730421 0.974384 -0.0908101
0.804195 0.945507 -0.0652078
0.834333 0.9 0
0.165667 1 0
0.165667 1.05031 -0.0572252
0.251029 1.08186 -0.0850694
0.336664 1.09527 -0.0969625
0.419321 1.10018 -0.101196
0.499966 1.10167 -0.102012
0.580685 1.10088 -0.100467
0.66357 1.09692 -0.095225
0.75053 1.08583 -0.0812762
0.834333 1.03292 -0.0469258
0.834333 1 0
0.165667 0 0.1
0.197633 -0.0673815 0.0555707
0.270083 -0.093186 0.0264191
0.346886 -0.101509 0.0147005
0.42367 -0.104141 0.0107069
0.500147 -0.104591 0.0098975
0.576672 -0.103619 0.0110255
0.653592 -0.100276 0.0153212
0.730326 -0.0912873 0.0274381
0.803161 -0.064645 0.0599003
0.834333 0 0.1
0.165667 0.1 0.1
0.237936 0.0506336 0.0510594
0.29297 0.0231693 0.0232553
0.357385 0.0135379 0.0133287
0.427684 0.010598 0.010233
0.499965 0.0101098 0.00967841
0.572175 0.011004 0.0105777
0.642389 0.0144396 0.014072
0.70652 0.0248005 0.0245647
0.761103 0.0525403 0.0529383
0.834333 0.1 0.1
0.165667 0.2 0.1
0.242381 0.168989 0.045374
0.301907 0.146707 0.0149223
0.364802 0.135222 0.00464967
0.431508 0.1306 0.00208797
0.499851 0.129537 0.00183802
0.568169 0.131016 0.00245995
0.634774 0.136142 0.00545206
0.697558 0.148123 0.0163975
0.757432 0.169865 0.0476381
0.834333 0.2 0.1
0.165667 0.3 0.1
0.242925 0.280812 0.0413239
0.303771 0.26604 0.00827299
0.367302 0.257452 -0.00343068
0.433155 0.253343 -0.00639239
0.499834 0.252295 -0.0066975
0.566498 0.253732 -0.00604154
0.632263 0.258223 -0.00270236
0.695635 0.267174 0.00957873
0.756884 0.281093 0.0435224
0.834333 0.3 0.1
0.165667 0.4 0.1
0.242831 0.390782 0.038777
0.303907 0.383179 0.00397315
0.367809 0.378823 -0.00871951
0.433603 0.376694 -0.0121601
0.499837 0.376128 -0.0126083
0.566067 0.376981 -0.0118606
0.631722 0.379513 -0.00811031
0.695403 0.384213 0.00512625
0.75687 0.390873 0.0409229
0.834333 0.4 0.1
0.165667 0.5 0.1
0.242691 0.500128 0.0379778
0.30385 0.499533 0.00258783
0.367824 0.499653 -0.0104824
0.433641 0.499779 -0.0140787
0.499822 0.499937 -0.0145996
0.565985 0.500157 -0.0138649
0.631654 0.500334 -0.00994981
0.695446 0.500461 0.00366769
0.756954 0.500329 0.0399832
0.834333 0.5 0.1
0.165667 0.6 0.1
0.242604 0.609379 0.0389062
0.303791 0.615625 0.00422629
0.367698 0.620311 -0.00856209
0.433582 0.622916 -0.0120545
0.499842 0.623864 -0.0125149
0.566067 0.62338 -0.0117835
0.631725 0.621217 -0.0079948
0.695289 0.616814 0.00535114
0.756754 0.609762 0.0409866
0.834333 0.6 0.1
0.165667 0.7 0.1
0.242552 0.719032 0.0415681
0.303654 0.732475 0.00869279
0.367237 0.741493 -0.00320162
0.433174 0.746142 -0.00626339
0.49993 0.747703 -0.00660698
0.56657 0.746754 -0.00591971
0.632254 0.742677 -0.00246449
0.695484 0.73407 0.0100078
0.756851 0.719641 0.0438092
0.834333 0.7 0.1
0.165667 0.8 0.1
0.242055 0.830127 0.0457578
0.301974 0.851275 0.0154657
0.364852 0.86346 0.00488461
0.431608 0.868755 0.00222924
0.499988 0.870394 0.0019816
0.568351 0.869516 0.00269394
0.634904 0.864997 0.00589767
0.697505 0.853507 0.0172492
0.757225 0.831649 0.0482284
0.834333 0.8 0.1
0.165667 0.9 0.1
0.23781 0.94639 0.051055
0.293334 0.974231 0.0235035
0.35748 0.985102 0.0134368
0.42769 0.988776 0.0103686
0.499951 0.989839 0.00989666
0.572228 0.989535 0.0109637
0.642488 0.986706 0.0147711
0.706816 0.977158 0.0258402
0.762216 0.949736 0.0535723
0.834333 0.9 0.1
0.165667 1 0.1
0.196459 1.0654 0.0551615
0.269581 1.09041 0.0264411
0.346251 1.10001 0.0147011
0.423159 1.10344 0.01086
0.499674 1.10454 0.0101817
0.57619 1.10419 0.0114918
0.653115 1.10166 0.0161735
0.730242 1.09348 0.0290324
0.802945 1.06729 0.0599177
0.834333 1 0.1
0.165667 0 0.2
0.199571 -0.0710902 0.168997
0.276292 -0.101742 0.146131
0.352974 -0.110909 0.133725
0.42705 -0.113021 0.128521
0.500051 -0.113159 0.12728
0.573066 -0.11252 0.128832
0.647118 -0.109849 0.134428
0.7238 -0.100059 0.147468
0.801606 -0.0684736 0.172137
0.834333 0 0.2
0.165667 0.1 0.2
0.242393 0.0451109 0.169093
0.301916 0.0147999 0.146696
0.364865 0.00480115 0.13501
0.431558 0.00236418 0.130272
0.499884 0.00215292 0.129176
0.56816 0.00277508 0.130648
0.634763 0.00569757 0.135809
0.697507 0.0164307 0.147891
0.757361 0.0473822 0.169974
0.834333 0.1 0.2
0.165667 0.2 0.2
0.247775 0.165716 0.165895
0.313113 0.141632 0.141777
0.374101 0.129528 0.129391
0.43632 0.124898 0.124629
0.499786 0.12391 0.123592
0.563269 0.125307 0.125006
0.625545 0.130396 0.130156
0.686695 0.142857 0.142806
0.752227 0.166393 0.166645
0.834333 0.2 0.2
0.165667 0.3 0.2
0.24862 0.279042 0.162791
0.315954 0.263657 0.136541
0.377516 0.254537 0.123034
0.438477 0.250319 0.11787
0.499822 0.249204 0.116759
0.561153 0.250614 0.118225
0.622182 0.255135 0.123774
0.68389 0.264331 0.137541
0.751449 0.279242 0.163543
0.834333 0.3 0.2
0.165667 0.4 0.2
0.248763 0.389976 0.160709
0.316639 0.382256 0.133055
0.37847 0.377619 0.118607
0.439166 0.37537 0.11306
0.499841 0.374753 0.111871
0.560475 0.375592 0.113404
0.621198 0.3781 0.119296
0.683116 0.382837 0.133918
0.751174 0.39009 0.161371
0.834333 0.4 0.2
0.165667 0.5 0.2
0.248716 0.499958 0.159916
0.316702 0.499562 0.131903
0.378578 0.499728 0.117088
0.439266 0.499914 0.111337
0.499777 0.499933 0.11007
0.560314 0.500137 0.111679
0.620999 0.500199 0.117708
0.682966 0.500232 0.132644
0.751142 0.50019 0.160588
0.834333 0.5 0.2
0.165667 0.6 0.2
0.248665 0.609943 0.160714
0.316557 0.616894 0.13316
0.378389 0.621627 0.118758
0.439109 0.624303 0.113148
0.499798 0.625206 0.111902
0.560532 0.624702 0.113421
0.621247 0.622354 0.119357
0.683088 0.617704 0.134051
0.751194 0.610344 0.161429
0.834333 0.6 0.2
0.165667 0.7 0.2
0.248419 0.720598 0.162903
0.315793 0.735253 0.136861
0.377417 0.744554 0.123312
0.438432 0.749212 0.118064
0.499871 0.750754 0.116912
0.561246 0.749778 0.118396
0.622244 0.745573 0.124005
0.68381 0.736449 0.137875
0.751435 0.721353 0.163662
0.834333 0.7 0.2
0.165667 0.8 0.2
0.247689 0.833253 0.16605
0.313162 0.856619 0.142083
0.374174 0.869303 0.129611
0.436423 0.87457 0.124744
0.499948 0.876112 0.123728
0.563458 0.875194 0.125224
0.625676 0.870548 0.130539
0.686719 0.858398 0.143364
0.752291 0.834609 0.167019
0.834333 0.8 0.2
0.165667 0.9 0.2
0.242665 0.95208 0.169276
0.302472 0.982955 0.146993
0.365022 0.994006 0.135187
0.431576 0.997066 0.130413
0.499892 0.997807 0.129375
0.568277 0.997684 0.13097
0.635017 0.99527 0.136331
0.698 0.98513 0.14862
0.757961 0.954947 0.169908
0.834333 0.9 0.2
0.165667 1 0.2
0.198314 1.06845 0.168159
0.275944 1.09957 0.146355
0.352521 1.10966 0.133848
0.426624 1.11245 0.128709
0.49965 1.11314 0.127564
0.57272 1.11313 0.129288
0.64693 1.11102 0.135073
0.723799 1.10158 0.148208
0.801203 1.0698 0.171766
0.834333 1 0.2
0.165667 0 0.3
0.19849 -0.0740593 0.279613
0.276728 -0.107886 0.264763
0.354509 -0.118915 0.255498
0.428267 -0.121615 0.250945
0.50004 -0.121855 0.249705
0.571809 -0.121164 0.251231
0.645593 -0.11799 0.256125
0.723581 -0.10628 0.265922
0.803461 -0.0712547 0.282503
0.834333 0 0.3
0.165667 0.1 0.3
0.242967 0.041041 0.280756
0.303852 0.00809366 0.266013
0.367401 -0.00329195 0.257276
0.433216 -0.00615965 0.253091
0.499873 -0.00641607 0.25198
0.566481 -0.00577571 0.253407
0.632238 -0.0025306 0.257958
0.695678 0.00943718 0.266994
0.756881 0.0430987 0.281257
0.834333 0.1 0.3
0.165667 0.2 0.3
[...]
POINT_DATA 56791
SCALARS Displacements float 1
LOOKUP_TABLE default
0.165667 0.107816 0.13103 0.142117 0.14423 0.144073 0.14337 0.139908 0.126051 0.0819951 0.165667 0.165667 0.126716 0.137872 0.140556 0.139165 0.138022 0.138521 0.139171 0.13587 0.124284 0.165667 0.165667 0.126215 0.137863 0.13954 0.13642 0.134523 0.135817 0.138345 0.13623 0.123785 0.165667 0.165667 0.124734 0.136725 0.13812 0.134191 0.131905 0.133672 0.1371 0.135179 0.121789 0.165667 0.165667 0.123457 0.135889 0.137214 0.13288 0.130397 0.132491 0.136386 0.134437 0.120184 0.165667 0.165667 0.122881 0.135473 0.13683 0.13242 0.129917 0.132143 0.136221 0.134254 0.119738 0.165667 0.165667 0.122936 0.135378 0.136877 0.132712 0.13034 0.13251 0.136478 0.13452 0.120861 0.165667 0.165667 0.123503 0.135761 0.137526 0.13387 0.131782 0.133717 0.137247 0.135269 0.122474 0.165667 0.165667 0.124863 0.136617 0.138764 0.135984 0.134359 0.135851 0.13853 0.13634 0.124825 0.165667 0.165667 0.124247 0.136167 0.139646 0.138625 0.137796 0.1385 0.139341 0.136457 0.124505 0.165667 0.165667 0.100589 0.128614 0.140792 0.143702 0.144026 0.143679 0.14067 0.128138 0.0871674 0.165667 0.165667 0.126675 0.137875 0.140636 0.139208 0.13805 0.138556 0.13921 0.135842 0.123145 0.165667 0.165667 0.154462 0.142955 0.135206 0.129681 0.127429 0.129193 0.134251 0.141718 0.154142 0.165667 0.165667 0.155621 0.14305 0.132239 0.12408 0.120834 0.123637 0.131421 0.142039 0.15484 0.165667 0.165667 0.155688 0.142603 0.130529 0.120812 0.116877 0.120449 0.129929 0.141935 0.155015 0.165667 0.165667 0.155673 0.142481 0.129871 0.119383 0.115111 0.119139 0.129497 0.142094 0.155112 0.165667 0.165667 0.155587 0.142387 0.12964 0.118936 0.1146 0.118837 0.129461 0.142168 0.155127 0.165667 0.165667 0.155423 0.142089 0.129542 0.119202 0.115018 0.119137 0.129516 0.142146 0.155233 0.165667 0.165667 0.155234 0.1419 0.129973 0.120505 0.116793 0.120509 0.130038 0.142067 0.155032 0.165667 0.165667 0.155014 0.142035 0.131453 0.123634 0.120677 0.123704 0.131595 0.142183 0.155135 0.165667 0.165667 0.153425 0.14168 0.134311 0.129158 0.127239 0.129287 0.134497 0.141902 0.153668 0.165667 0.165667 0.124869 0.135743 0.139342 0.138497 0.137823 0.13877 0.139855 0.136532 0.124715 0.165667 0.165667 0.126212 0.138108 0.13964 0.136435 0.13451 0.135835 0.13843 0.1363 0.123071 0.165667 0.165667 0.155704 0.143133 0.132265 0.124059 0.120789 0.123597 0.131413 0.142141 0.154971 0.165667 0.165667 0.155486 0.139969 0.12427 0.112429 0.107833 0.112037 0.123558 0.139192 0.155174 0.165667 0.165667 0.154634 0.137088 0.118319 0.103412 0.0975157 0.103128 0.117809 0.136583 0.154361 0.165667 0.165667 0.154191 0.135651 0.115253 0.0984843 0.0916738 0.0982692 0.114903 0.135363 0.154076 0.165667 0.165667 0.154024 0.135117 0.114232 0.0969683 0.0899298 0.0968276 0.114075 0.135033 0.153988 0.165667 0.165667 0.154089 0.135419 0.114947 0.0983029 0.0916333 0.0983047 0.114913 0.135393 0.154071 0.165667 0.165667 0.154365 0.136519 0.117726 0.103017 0.0973634 0.103146 0.11789 0.136705 0.154428 0.165667 0.165667 0.155146 0.139161 0.123528 0.112031 0.107751 0.112165 0.123798 0.139465 0.155253 0.165667 0.165667 0.15495 0.142098 0.131399 0.123536 0.12064 0.123749 0.131731 0.142447 0.155241 0.165667 0.165667 0.123952 0.136236 0.138415 0.13578 0.134342 0.136174 0.139133 0.137138 0.124219 0.165667 0.165667 0.124903 0.136997 0.138176 0.134148 0.131826 0.133618 0.137137 0.135265 0.121257 0.165667 0.165667 0.155839 0.142784 0.130528 0.120721 0.116749 0.120345 0.129891 0.142036 0.155152 0.165667 0.165667 0.154701 0.137219 0.118263 0.103329 0.0974697 0.103062 0.117754 0.136588 0.154395 0.165667 0.165667 0.152961 0.131592 0.107328 0.0868834 0.0782994 0.0865618 0.106977 0.131247 0.152653 0.165667 0.165667 0.152001 0.128454 0.100711 0.0759339 0.0649341 0.0757314 0.100497 0.128282 0.15188 0.165667 0.165667 0.151672 0.127458 0.0984547 0.0720158 0.0600269 0.0719403 0.0983783 0.127324 0.151648 0.165667 0.165667 0.151896 0.128275 0.100487 0.0758449 0.0649601 0.0757465 0.100483 0.128292 0.151924 0.165667 0.165667 0.152799 0.131157 0.106762 0.0865138 0.0782759 0.0866742 0.107019 0.131335 0.152813 0.165667 0.165667 0.154456 0.136561 0.117717 0.103035 0.0974128 0.103231 0.118028 0.13684 0.154491 0.165667 0.165667 0.155052 0.14196 0.129839 0.12033 0.116736 0.120593 0.130268 0.142367 0.155485 0.165667 0.165667 0.122415 0.135308 0.137139 0.133626 0.13174 0.134003 0.137857 0.136307 0.123083 0.165667 0.165667 0.12297 0.135785 0.137098 0.132754 0.130256 0.132371 0.136389 0.134621 0.119999 0.165667 0.165667 0.155855 0.142559 0.129818 0.119265 0.114928 0.11898 0.129433 0.142202 0.15539 0.165667 0.165667 0.154237 0.13575 0.115164 0.0983393 0.0916021 0.0981209 0.114814 0.135363 0.15414 0.165667 0.165667 0.152003 0.128506 0.100665 0.0758291 0.06479 0.0757076 0.100482 0.128229 0.151851 0.165667 0.165667 0.150675 0.124041 0.0911101 0.058461 0.0410675 0.0582695 0.0909957 0.123934 0.15064 0.165667 0.165667 0.15028 0.122641 0.0878114 0.0515729 0.0297822 0.0514455 0.087662 0.122514 0.150253 0.165667 0.165667 0.150684 0.124034 0.09092 0.0582353 0.0410687 0.0583019 0.0910223 0.123989 0.150679 0.165667 0.165667 0.151965 0.128208 0.100359 0.0756963 0.0647499 0.0757122 0.100527 0.128345 0.151954 0.165667 0.165667 0.154167 0.135362 0.11473 0.0980252 0.0915271 0.0983697 0.115093 0.135621 0.1542 0.165667 0.165667 0.15523 0.142147 0.129424 0.119041 0.115027 0.119255 0.129801 0.142597 0.155771 0.165667 0.165667 0.120745 0.134702 0.136419 0.132421 0.130334 0.132853 0.137267 0.135896 0.122687 0.165667 0.165667 0.11948 0.135113 0.136636 0.132244 0.12973 0.131979 0.136191 0.134488 0.120031 0.165667 0.165667 0.155559 0.142383 0.129566 0.11878 0.1144 0.118617 0.129355 0.142284 0.155494 0.165667 0.165667 0.15405 0.135217 0.114179 0.0968183 0.0897516 0.0965862 0.11391 0.135033 0.154124 0.165667 0.165667 0.151655 0.127362 0.0984071 0.0719902 0.0598073 0.0718211 0.0982566 0.127208 0.151608 0.165667 0.165667 0.150317 0.122554 0.0877147 0.0515807 0.0296011 0.0513861 0.0875845 0.122418 0.150177 0.165667 0.165667 0.149797 0.120933 0.0840674 0.042951 0.000278267 0.0427811 0.0839155 0.120951 0.149749 0.165667 0.165667 0.150274 0.122561 0.0876977 0.0514678 0.0295998 0.0515299 0.0877304 0.122538 0.150254 0.165667 0.165667 0.151652 0.127287 0.0982162 0.0718072 0.0598512 0.071986 0.098499 0.127439 0.151724 0.165667 0.165667 0.154106 0.135087 0.11396 0.0966465 0.089801 0.0969033 0.114331 0.135362 0.154187 0.165667 0.165667 0.155298 0.142299 0.129392 0.118688 0.114603 0.119034 0.129883 0.142832 0.155931 0.165667 0.165667 0.120283 0.13463 0.136269 0.132092 0.129887 0.132572 0.137211 0.135944 0.122534 0.165667 0.165667 0.123602 0.135627 0.13685 0.132546 0.130107 0.132294 0.13638 0.134667 0.120821 0.165667 0.165667 0.155644 0.142251 0.129508 0.118998 0.114761 0.118878 0.129348 0.142121 0.155381 0.165667 0.165667 0.154095 0.135456 0.114907 0.0981884 0.0914818 0.0980004 0.114688 0.13531 0.154149 0.165667 0.165667 0.151854 0.128225 0.100476 0.0756634 0.064595 0.0754728 0.100221 0.128042 0.151895 0.165667 0.165667 0.150576 0.123932 0.0909325 0.0583146 0.0410332 0.0581538 0.0908409 0.123766 0.150667 0.165667 0.165667 0.150217 0.122485 0.0876902 0.0514602 0.0294461 0.0513813 0.0876224 0.122406 0.150253 0.165667 0.165667 0.150626 0.123876 0.0909008 0.0581735 0.0409238 0.0582563 0.0909292 0.123959 0.150716 0.165667 0.165667 0.151896 0.128267 0.100384 0.0755744 0.064758 0.0757779 0.10062 0.128431 0.152047 0.165667 0.165667 0.154175 0.135433 0.114848 0.0981404 0.0915501 0.0984262 0.115263 0.135815 0.154361 0.165667 0.165667 0.15531 0.142227 0.129444 0.119094 0.115076 0.119399 0.130058 0.142875 0.156016 0.165667 0.165667 0.121067 0.134867 0.136481 0.132521 0.130403 0.133021 0.137529 0.136287 0.123158 0.165667 0.165667 0.124254 0.13607 0.137545 0.133718 0.13153 0.133466 0.137085 0.135318 0.122378 0.165667 0.165667 0.155301 0.14201 0.129897 0.120286 0.116486 0.120175 0.129791 0.141969 0.155236 0.165667 0.165667 0.154339 0.136552 0.1177 0.102898 0.097149 0.102842 0.117579 0.136486 0.15445 0.165667 0.165667 0.152693 0.131151 0.106762 0.0864629 0.0781009 0.0864111 0.106734 0.13107 0.152759 0.165667 0.165667 0.151848 0.128143 0.100251 0.0755334 0.0645873 0.0754613 0.100211 0.128059 0.151882 0.165667 0.165667 0.151626 0.127231 0.0982024 0.0718149 0.0599423 0.0718732 0.0982205 0.127214 0.151646 0.165667 0.165667 0.151889 0.128176 0.100368 0.0756457 0.0647891 0.0756921 0.100472 0.128279 0.151942 0.165667 0.165667 0.152688 0.13115 0.106818 0.0865047 0.0782036 0.0867758 0.107189 0.131549 0.15296 0.165667 0.165667 0.154447 0.136637 0.1178 0.103035 0.0974295 0.103373 0.118322 0.137243 0.154781 0.165667 0.165667 0.154995 0.142098 0.129989 0.120386 0.116802 0.120859 0.1307 0.142935 0.155966 0.165667 0.165667 0.121823 0.135513 0.137277 0.133721 0.131943 0.134308 0.138378 0.137018 0.124326 0.165667 0.165667 0.125121 0.136864 0.138758 0.135836 0.134113 0.135613 0.138382 0.136319 0.124646 0.165667 0.165667 0.154975 0.142049 0.131373 0.123424 0.12038 0.12338 0.131309 0.142094 0.155004 0.165667 0.165667 0.155116 0.139122 0.123436 0.111813 0.107479 0.11182 0.123399 0.13912 0.155167 0.165667 0.165667 0.154402 0.136497 0.117587 0.102848 0.0972028 0.102941 0.117645 0.136436 0.154335 0.165667 0.165667 0.154126 0.135303 0.114692 0.0980388 0.0914505 0.098115 0.11477 0.135236 0.154001 0.165667 0.165667 0.154057 0.134995 0.113907 0.0965984 0.0896858 0.0967081 0.114029 0.135 0.153985 0.165667 0.165667 0.154144 0.135305 0.114743 0.0981012 0.0915158 0.098286 0.11505 0.135536 0.154198 0.165667 0.165667 0.154388 0.136528 0.117681 0.102993 0.0974131 0.103306 0.118173 0.137047 0.15466 0.165667 0.165667 0.155211 0.139217 0.12352 0.111953 0.107778 0.112416 0.124258 0.140007 0.155657 0.165667 0.165667 0.15493 0.142261 0.131525 0.123633 0.120795 0.124096 0.132361 0.143244 0.155749 0.165667 0.165667 0.123746 0.136569 0.138559 0.135905 0.134561 0.136498 0.139757 0.138084 0.125845 0.165667 0.165667 0.125393 0.136409 0.139588 0.138444 0.137567 0.138316 0.139288 0.136035 0.124921 0.165667 0.165667 0.153581 0.141686 0.134175 0.128952 0.126996 0.128986 0.134213 0.141742 0.153565 0.165667 0.165667 0.15516 0.142005 0.131237 0.12331 0.120374 0.12343 0.131304 0.141968 0.155041 0.165667 0.165667 0.15537 0.141855 0.129705 0.12011 0.116488 0.120247 0.129813 0.14181 0.155246 0.165667 0.165667 0.155506 0.14207 0.1293 0.11893 0.114829 0.119015 0.129411 0.142038 0.155528 0.165667 0.165667 0.155642 0.142183 0.129282 0.1186 0.114442 0.118794 0.129481 0.142299 0.155699 0.165667 0.165667 0.155586 0.142071 0.129351 0.118959 0.114977 0.119234 0.129795 0.142417 0.15575 0.165667 0.165667 0.15526 0.141901 0.12985 0.120306 0.116763 0.120716 0.13047 0.142598 0.155779 0.165667 0.165667 0.155135 0.142072 0.131368 0.123573 0.120769 0.124063 0.132236 0.143054 0.155745 0.165667 0.165667 0.154202 0.141802 0.134254 0.129165 0.127416 0.129684 0.135267 0.142965 0.154657 0.165667 0.165667 0.124003 0.136179 0.139279 0.138584 0.138112 0.139274 0.140694 0.137787 0.126478 0.165667 0.165667 0.100703 0.129064 0.140836 0.143535 0.143846 0.143562 0.140847 0.129056 0.101407 0.165667 0.165667 0.125029 0.135917 0.139196 0.138303 0.137532 0.138473 0.139591 0.136424 0.125466 0.165667 0.165667 0.123782 0.136026 0.138215 0.135535 0.134072 0.135822 0.138684 0.13679 0.125529 0.165667 0.165667 0.121706 0.134877 0.13687 0.133383 0.131532 0.133674 0.137414 0.135887 0.12413 0.165667 0.165667 0.119789 0.134232 0.13625 0.132234 0.130124 0.132542 0.136836 0.135509 0.123332 0.165667 0.165667 0.119272 0.134082 0.13601 0.131953 0.129726 0.132343 0.136789 0.135591 0.123134 0.165667 0.165667 0.119479 0.134226 0.136242 0.132356 0.130294 0.132802 0.13717 0.135931 0.123504 0.165667 0.165667 0.120726 0.135003 0.136968 0.133584 0.131843 0.134176 0.138133 0.136752 0.124862 0.165667 0.165667 0.122438 0.136195 0.138295 0.135792 0.134509 0.136413 0.139594 0.137959 0.126461 0.165667 0.165667 0.123027 0.135771 0.139112 0.138495 0.138029 0.139194 0.140561 0.137788 0.127075 0.165667 0.165667 0.0820607 0.126137 0.139836 0.14331 0.144072 0.144288 0.14214 0.130926 0.107544 0.165667 0.158429 0.138805 0.139165 0.138328 0.136761 0.13643 0.137285 0.137281 0.136902 0.15972 0.160235 0.14442 0.139623 0.134408 0.130703 0.130419 0.13357 0.138395 0.143684 0.159373 0.160233 0.144583 0.139117 0.132362 0.127327 0.12706 0.131594 0.13812 0.143692 0.158986 0.160086 0.144353 0.138784 0.131274 0.125529 0.125305 0.130643 0.137927 0.143584 0.159147 0.160022 0.144201 0.138643 0.130841 0.124811 0.124653 0.130375 0.137957 0.143643 0.159206 0.159729 0.143964 0.138459 0.130728 0.124733 0.124606 0.130355 0.137965 0.143635 0.159768 0.159555 0.143762 0.138299 0.130932 0.125278 0.125159 0.130619 0.137958 0.143922 0.160359 0.159502 0.143688 0.138361 0.131809 0.126956 0.126866 0.131565 0.138037 0.143661 0.160693 0.159303 0.143362 0.138623 0.133733 0.130294 0.130263 0.133618 0.138346 0.14321 0.160334 0.15833 0.137159 0.137801 0.13747 0.136295 0.13632 0.137506 0.137871 0.137104 0.158481 0.160352 0.144479 0.139667 0.134428 0.130705 0.13042 0.133611 0.138452 0.143446 0.159166 0.161845 0.149863 0.136914 0.126447 0.120252 0.119984 0.125706 0.135885 0.149096 0.16139 0.161762 0.14917 0.13388 0.120453 0.112275 0.112045 0.11979 0.132969 0.148472 0.161415 0.161598 0.148607 0.132202 0.117087 0.107547 0.107324 0.116538 0.131505 0.148095 0.161403 0.161557 0.148386 0.131512 0.115742 0.105578 0.105393 0.115325 0.131059 0.148028 0.16133 0.161548 0.14821 0.13138 0.11561 0.10545 0.105353 0.11528 0.131015 0.148114 0.161376 0.161501 0.148103 0.131655 0.116698 0.107256 0.107209 0.116499 0.131514 0.148232 0.161448 0.161567 0.148376 0.132978 0.119798 0.111848 0.111808 0.119744 0.132984 0.148609 0.161535 0.161596 0.148934 0.135776 0.125625 0.119782 0.119828 0.125781 0.135982 0.149097 0.161625 0.160098 0.143184 0.138302 0.133503 0.130201 0.130347 0.13392 0.138886 0.14378 0.15945 0.160303 0.144813 0.13923 0.132335 0.12725 0.126972 0.131596 0.138199 0.143901 0.159418 0.161788 0.149294 0.133919 0.120436 0.11222 0.111947 0.119743 0.132984 0.148501 0.161357 0.161349 0.146443 0.126632 0.108219 0.0966668 0.0963943 0.107561 0.12586 0.145816 0.160987 0.161042 0.144494 0.121912 0.0996359 0.0849079 0.0847181 0.099093 0.121159 0.144008 0.160738 0.160893 0.143586 0.11955 0.0954492 0.0790468 0.0789118 0.0949872 0.119051 0.143185 0.160678 0.160839 0.143432 0.119473 0.0953709 0.0791175 0.0788807 0.0950355 0.119125 0.143267 0.160674 0.160967 0.144061 0.12131 0.0991858 0.0846929 0.0846657 0.0990934 0.121226 0.144068 0.160841 0.161191 0.145838 0.125823 0.107527 0.0962236 0.0963177 0.107679 0.126002 0.145976 0.161106 0.161604 0.148492 0.132816 0.119594 0.111729 0.111833 0.119911 0.133266 0.148669 0.161595 0.160312 0.14361 0.138 0.131468 0.126789 0.126981 0.131985 0.13872 0.144062 0.159563 0.160339 0.144599 0.138788 0.131175 0.125381 0.125166 0.130583 0.13798 0.143745 0.159764 0.161655 0.148822 0.132324 0.117011 0.107359 0.10719 0.116446 0.131521 0.148239 0.161337 0.161096 0.144588 0.121813 0.0995334 0.0847916 0.084632 0.0990009 0.121129 0.143984 0.160744 0.160591 0.141367 0.113997 0.0853559 0.0644372 0.0641551 0.0848326 0.113478 0.140915 0.160338 0.160353 0.139779 0.110157 0.077589 0.0517827 0.0513721 0.0771701 0.109714 0.139524 0.160168 0.160379 0.139729 0.110019 0.0774567 0.0516548 0.0514469 0.0772968 0.109749 0.139592 0.160164 0.160495 0.1411 0.113759 0.0851033 0.0642434 0.0641105 0.0849993 0.113582 0.141093 0.160434 0.160916 0.144071 0.121122 0.0989412 0.0845022 0.0846112 0.0992169 0.121402 0.144209 0.160925 0.161424 0.14821 0.131425 0.116369 0.107051 0.107229 0.116757 0.131924 0.148464 0.161544 0.159905 0.143571 0.137882 0.130519 0.125069 0.125269 0.131054 0.138615 0.144236 0.159675 0.159948 0.143784 0.138432 0.130686 0.124627 0.124454 0.130244 0.137979 0.143683 0.159527 0.1616 0.148606 0.131614 0.115635 0.105347 0.105142 0.11514 0.131025 0.148156 0.161346 0.160867 0.143671 0.119638 0.0954971 0.0788909 0.0786998 0.0948773 0.118978 0.14321 0.160655 0.1604 0.139893 0.110138 0.0776324 0.0516356 0.05127 0.0771337 0.109642 0.139529 0.160142 0.160076 0.137982 0.105131 0.0672908 0.0302256 0.0299031 0.0669106 0.104796 0.137717 0.159858 0.160021 0.137948 0.105037 0.0670173 0.0301078 0.0299984 0.0669626 0.104941 0.137685 0.159893 0.160209 0.139717 0.109816 0.0773902 0.0514744 0.0516098 0.077389 0.109915 0.139704 0.160222 0.160746 0.143308 0.119043 0.0949553 0.0787873 0.0789131 0.0953255 0.119452 0.143539 0.160878 0.161445 0.148225 0.131046 0.115189 0.105184 0.105364 0.115636 0.131596 0.148518 0.161594 0.159958 0.143766 0.138021 0.130294 0.124503 0.124707 0.130837 0.138762 0.144402 0.159879 0.159964 0.144121 0.13838 0.130554 0.124515 0.124366 0.130194 0.137946 0.143709 0.15994 0.161497 0.148327 0.131418 0.115478 0.105225 0.105038 0.115047 0.130948 0.148128 0.161375 0.160823 0.143561 0.119432 0.0952651 0.0787655 0.0785702 0.0948442 0.118951 0.143206 0.160708 0.160247 0.139905 0.110021 0.0774236 0.0514878 0.0513297 0.0771724 0.109691 0.139589 0.160183 0.160045 0.138011 0.104954 0.0669444 0.0300705 0.0300203 0.0667945 0.104891 0.137754 0.159922 0.159871 0.137815 0.104973 0.0670238 0.0300535 0.0300927 0.0670968 0.105029 0.137833 0.160052 0.160178 0.139655 0.109699 0.0772055 0.0514843 0.0516026 0.0775094 0.109953 0.139711 0.160319 0.160701 0.143377 0.119132 0.0950166 0.078811 0.0789499 0.0953984 0.119569 0.143666 0.160901 0.161412 0.148247 0.13109 0.115215 0.105262 0.105464 0.115737 0.131717 0.148676 0.161653 0.15967 0.143832 0.138105 0.130339 0.124564 0.124775 0.13094 0.138921 0.144544 0.160152 0.159818 0.144089 0.13835 0.130789 0.125052 0.12491 0.130416 0.13785 0.143707 0.159599 0.161513 0.148216 0.131702 0.116554 0.107022 0.10692 0.11623 0.13133 0.148109 0.1614 0.16091 0.144279 0.121388 0.0991394 0.0845341 0.0843651 0.0987927 0.120995 0.143958 0.160852 0.160448 0.14115 0.113632 0.0848808 0.0639722 0.0639304 0.0847766 0.113423 0.140913 0.160456 0.160196 0.13964 0.109758 0.0773144 0.0515481 0.0515317 0.0772896 0.109794 0.139579 0.160223 0.160186 0.139635 0.109817 0.0772152 0.0514413 0.0516149 0.0775971 0.109965 0.13963 0.16027 0.160346 0.141053 0.113578 0.0849582 0.0642555 0.0643953 0.0853441 0.113978 0.141313 0.160538 0.160814 0.144095 0.121238 0.099064 0.0846185 0.0848429 0.0995962 0.12184 0.144557 0.161062 0.161417 0.148316 0.131559 0.116479 0.107213 0.107443 0.11712 0.132411 0.148897 0.161691 0.15984 0.143896 0.138113 0.130673 0.125235 0.125481 0.131352 0.139032 0.144669 0.160249 0.159581 0.143881 0.138422 0.13169 0.126736 0.126615 0.131372 0.137955 0.143661 0.160428 0.161519 0.148418 0.132989 0.119668 0.111617 0.111552 0.119466 0.13276 0.148463 0.161485 0.161145 0.145904 0.125828 0.107437 0.0960333 0.0960322 0.107377 0.125723 0.145804 0.161164 0.160846 0.144095 0.121161 0.0989252 0.0844411 0.0844448 0.0989969 0.121148 0.14402 0.160925 0.160728 0.143303 0.119031 0.0949029 0.0786541 0.0787854 0.0951348 0.119218 0.143293 0.160815 0.160682 0.143262 0.119034 0.0949707 0.0788543 0.0790128 0.0953692 0.119452 0.143418 0.160838 0.160762 0.14402 0.121187 0.09915 0.0847193 0.0849243 0.0995572 0.121617 0.144503 0.161049 0.160996 0.145882 0.125899 0.107595 0.0963936 0.0966535 0.108236 0.126664 0.146506 0.161347 0.161459 0.148608 0.133042 0.119754 0.111948 0.112225 0.120496 0.134037 0.149402 0.161747 0.159584 0.143961 0.138321 0.131654 0.127025 0.1273 0.132443 0.139331 0.144891 0.160362 0.159463 0.143546 0.138603 0.133624 0.130103 0.130035 0.133437 0.138293 0.143316 0.16039 0.161603 0.14895 0.135721 0.125493 0.119579 0.119588 0.125495 0.135708 0.148946 0.161581 0.161528 0.148489 0.132789 0.119498 0.111565 0.111637 0.119618 0.13286 0.148343 0.161491 0.161466 0.148222 0.131376 0.116266 0.106978 0.107044 0.116465 0.1315 0.148107 0.161509 0.161502 0.148191 0.130956 0.115064 0.10513 0.105272 0.115373 0.131212 0.148179 0.161529 0.161477 0.148197 0.131019 0.115178 0.105214 0.105373 0.115558 0.131433 0.148353 0.161567 0.161458 0.148246 0.131486 0.116434 0.10719 0.107418 0.117016 0.132165 0.148629 0.161605 0.161454 0.148555 0.133005 0.119746 0.111957 0.112223 0.120434 0.