# vtk DataFile Version 5.1
vtk output
ASCII

DATASET UNSTRUCTURED_GRID
POINTS 17261 float
0.174 0 0
0.17918 -0.0636793 -0.0642358
0.244274 -0.0932032 -0.0935133
0.327373 -0.111025 -0.111374
0.412889 -0.119644 -0.120114
0.498462 -0.122039 -0.122561
0.584177 -0.119072 -0.119424
0.670305 -0.109824 -0.109471
0.753277 -0.0917483 -0.0898587
0.81167 -0.057073 -0.0570109
0.826 0 0
0.174 0.1 0
0.200432 0.0545125 -0.0686219
0.266748 0.0189654 -0.102236
0.341684 0.000668863 -0.116426
0.419416 -0.00810997 -0.123315
0.498125 -0.0106119 -0.125365
0.57686 -0.00760525 -0.122957
0.654697 0.00210881 -0.115502
0.728853 0.0212827 -0.099844
0.788239 0.0533238 -0.067484
0.826 0.1 0
0.174 0.2 0
0.201701 0.167424 -0.0699964
0.274272 0.13988 -0.108264
0.349594 0.121788 -0.124617
0.42398 0.112576 -0.131285
0.498072 0.109996 -0.133081
0.572186 0.113277 -0.130917
0.646512 0.123151 -0.123466
0.720003 0.141117 -0.10618
0.78344 0.16842 -0.0697445
0.826 0.2 0
0.174 0.3 0
0.201756 0.278494 -0.0715414
0.275503 0.260285 -0.112415
0.3518 0.24714 -0.130819
0.425758 0.239834 -0.13863
0.498368 0.23776 -0.140647
0.570931 0.240591 -0.138142
0.644599 0.248594 -0.129798
0.719335 0.262442 -0.110787
0.785422 0.280324 -0.0707798
0.826 0.3 0
0.174 0.4 0
0.201456 0.389088 -0.0725356
0.275325 0.379969 -0.114913
0.352112 0.373258 -0.134612
0.426272 0.369503 -0.143259
0.498783 0.368498 -0.145531
0.571171 0.370236 -0.142694
0.645087 0.374629 -0.133402
0.720549 0.381686 -0.113061
0.787426 0.389808 -0.0722965
0.826 0.4 0
0.174 0.5 0
0.201293 0.499451 -0.0728916
0.275276 0.499389 -0.115827
0.352314 0.499346 -0.135963
0.426659 0.499669 -0.144838
0.499268 0.500148 -0.147181
0.571747 0.500635 -0.14417
0.645724 0.501014 -0.13462
0.721085 0.501316 -0.113918
0.787687 0.500697 -0.0729124
0.826 0.5 0
0.174 0.6 0
0.201464 0.609595 -0.0726268
0.275785 0.618505 -0.11517
0.352867 0.625197 -0.134852
0.42724 0.629717 -0.143378
0.499853 0.63177 -0.145519
0.572259 0.631106 -0.142579
0.645999 0.627548 -0.133248
0.721015 0.621401 -0.112887
0.787223 0.611983 -0.0724775
0.826 0.6 0
0.174 0.7 0
0.20185 0.719513 -0.0719223
0.276288 0.737354 -0.113057
0.35332 0.750542 -0.131401
0.427724 0.75894 -0.138952
0.500485 0.762357 -0.140662
0.572981 0.760979 -0.137851
0.646464 0.754292 -0.129262
0.720767 0.741879 -0.110081
0.7863 0.723417 -0.0710963
0.826 0.7 0
0.174 0.8 0
0.201461 0.829134 -0.0707995
0.275261 0.855963 -0.109636
0.351933 0.874604 -0.125893
0.427042 0.885529 -0.132111
0.501272 0.889899 -0.133143
0.575172 0.888517 -0.130235
0.648957 0.880288 -0.122461
0.722242 0.863256 -0.105502
0.785877 0.835813 -0.0688614
0.826 0.8 0
0.174 0.9 0
0.196747 0.939028 -0.0678513
0.268684 0.973575 -0.105086
0.34543 0.99493 -0.119304
0.4232 1.00631 -0.124791
0.501541 1.01075 -0.125466
0.57987 1.00945 -0.121828
0.656989 1.00153 -0.113348
0.729395 0.983807 -0.0979431
0.789888 0.951385 -0.0670046
0.826 0.9 0
0.174 1 0
0.184952 1.05752 -0.0691116
0.2478 1.08692 -0.0980769
0.329696 1.10708 -0.114547
0.414864 1.11797 -0.121602
0.500206 1.12246 -0.122615
0.585591 1.12128 -0.118497
0.670735 1.11398 -0.108063
0.752448 1.09724 -0.0885721
0.815113 1.06934 -0.0587324
0.826 1 0
0.174 0 0.1
0.200288 -0.0684236 0.0540976
0.266712 -0.102122 0.018677
0.341708 -0.116219 0.000329872
0.419397 -0.123002 -0.00851976
0.497995 -0.12498 -0.0110445
0.576619 -0.122609 -0.00794096
0.654444 -0.115275 0.00202758
0.728884 -0.0996436 0.0213155
0.788633 -0.0673004 0.0527665
0.826 0 0.1
0.174 0.1 0.1
0.245568 0.0465421 0.0465505
0.29682 0.0148275 0.0146524
0.357567 -0.00136731 -0.00158462
0.426248 -0.00927812 -0.00958526
0.497611 -0.0115596 -0.0119328
0.568753 -0.00892843 -0.00931323
0.636619 -0.000346371 -0.000658713
0.697506 0.017399 0.0172166
0.752459 0.0509333 0.0507756
0.826 0.1 0.1
0.174 0.2 0.1
0.251285 0.166282 0.0419171
0.307971 0.138858 0.00704595
0.36782 0.122007 -0.00991606
0.431792 0.113459 -0.0176027
0.497662 0.111068 -0.0197091
0.56337 0.114148 -0.0170791
0.626821 0.123414 -0.00821013
0.686467 0.140963 0.0109709
0.746633 0.168893 0.047375
0.826 0.2 0.1
0.174 0.3 0.1
0.252089 0.278495 0.0389756
0.310518 0.260432 0.00163477
0.37105 0.248017 -0.0169852
0.434098 0.241189 -0.0254395
0.49791 0.23926 -0.0276912
0.561489 0.241952 -0.0247574
0.623948 0.249451 -0.015041
0.684541 0.262464 0.00572395
0.746755 0.281128 0.0441331
0.826 0.3 0.1
0.174 0.4 0.1
0.252266 0.389327 0.0371723
0.311026 0.380158 -0.00168995
0.371943 0.373838 -0.0213896
0.434945 0.370337 -0.0305056
0.498321 0.369461 -0.0329459
0.56152 0.371073 -0.0297416
0.623936 0.375205 -0.0193743
0.685004 0.382031 0.00231138
0.747689 0.39137 0.0417021
0.826 0.4 0.1
0.174 0.5 0.1
0.252398 0.49972 0.0365325
0.311258 0.499153 -0.00286705
0.372369 0.49926 -0.0229021
0.435405 0.499588 -0.0322448
0.498793 0.500189 -0.0346989
0.561889 0.500502 -0.0313987
0.624321 0.50072 -0.0207887
0.685375 0.501036 0.00122382
0.747927 0.501464 0.0410592
0.826 0.5 0.1
0.174 0.6 0.1
0.252515 0.609837 0.0370458
0.311539 0.617917 -0.00186854
0.37265 0.624436 -0.0215401
0.435751 0.628838 -0.0305721
0.499215 0.630741 -0.0328764
0.562408 0.630093 -0.0295567
0.624648 0.626499 -0.01913
0.685618 0.620353 0.00251707
0.74803 0.611837 0.0417206
0.826 0.6 0.1
0.174 0.7 0.1
0.252615 0.719821 0.0386247
0.31156 0.736982 0.00118123
0.37243 0.749678 -0.0173811
0.435717 0.757654 -0.0256167
0.499699 0.76074 -0.027543
0.563333 0.759475 -0.0242979
0.625624 0.752775 -0.014452
0.686274 0.740352 0.00613335
0.748216 0.722631 0.0436527
0.826 0.7 0.1
0.174 0.8 0.1
0.252263 0.830865 0.0412972
0.309688 0.85707 0.00600358
0.369939 0.874632 -0.0108954
0.434285 0.884876 -0.0180844
0.500209 0.88891 -0.0194914
0.565762 0.887443 -0.0162025
0.629041 0.879513 -0.00697031
0.688729 0.862618 0.0119904
0.749209 0.834777 0.0467203
0.826 0.8 0.1
0.174 0.9 0.1
0.246817 0.947451 0.0451065
0.300335 0.97894 0.0120356
0.361271 0.997361 -0.00377368
0.429385 1.00747 -0.0105829
0.500329 1.01164 -0.0117122
0.571347 1.01066 -0.00788794
0.63953 1.0035 0.00182915
0.700401 0.987455 0.0199382
0.753694 0.954279 0.0508002
0.826 0.9 0.1
0.174 1 0.1
0.211764 1.06522 0.0481667
0.271085 1.09663 0.0151709
0.343455 1.1127 -0.00200154
0.420563 1.12131 -0.00979279
0.499021 1.12536 -0.0110263
0.577542 1.12468 -0.00674753
0.655406 1.11901 0.00426006
0.732059 1.10459 0.0251877
0.803638 1.06727 0.060227
0.826 1 0.1
0.174 0 0.2
0.201752 -0.0699044 0.16721
0.274295 -0.108184 0.139673
0.349585 -0.12447 0.121544
0.423906 -0.131045 0.112258
0.497871 -0.132796 0.109649
0.571903 -0.130537 0.112938
0.646147 -0.123062 0.122869
0.719522 -0.105731 0.140738
0.782843 -0.0697653 0.168135
0.826 0 0.2
0.174 0.1 0.2
0.251287 0.041943 0.166235
0.307993 0.00712128 0.138718
0.367777 -0.00976158 0.121835
0.431709 -0.0173669 0.113205
0.497527 -0.0193904 0.11075
0.563091 -0.0166876 0.113753
0.626401 -0.00774306 0.122996
0.686149 0.011531 0.140529
0.746587 0.047971 0.168466
0.826 0.1 0.2
0.174 0.2 0.2
0.256902 0.16356 0.163541
0.321635 0.134089 0.134063
0.379962 0.11626 0.116149
0.438364 0.107626 0.107411
0.497747 0.105383 0.105082
0.557185 0.10869 0.10828
0.615907 0.118472 0.117971
0.674854 0.137016 0.136556
0.740487 0.166192 0.165786
0.826 0.2 0.2
0.174 0.3 0.2
0.258188 0.277084 0.161215
0.324882 0.258146 0.129496
0.384014 0.245077 0.110322
0.441186 0.238034 0.100937
0.498206 0.236079 0.0984819
0.555315 0.238884 0.101968
0.612716 0.246741 0.112418
0.672313 0.260133 0.132261
0.739971 0.2788 0.163377
0.826 0.3 0.2
0.174 0.4 0.2
0.258538 0.388634 0.159621
0.325864 0.379303 0.126556
0.38521 0.372651 0.106406
0.442191 0.369081 0.0964741
0.498582 0.368164 0.0938575
0.555032 0.369789 0.0975582
0.612285 0.37402 0.108529
0.672164 0.380932 0.129259
0.740096 0.389905 0.161645
0.826 0.4 0.2
0.174 0.5 0.2
0.258615 0.499496 0.159067
0.326176 0.499257 0.125506
0.385741 0.499394 0.105036
0.442732 0.499636 0.0949131
0.499087 0.500174 0.0922754
0.555482 0.500478 0.0960891
0.612589 0.50075 0.107255
0.672398 0.50078 0.128209
0.740305 0.500685 0.161166
0.826 0.5 0.2
0.174 0.6 0.2
0.258807 0.61022 0.159554
0.326351 0.618876 0.126382
0.385942 0.625923 0.106308
0.442959 0.630167 0.0964419
0.499409 0.632009 0.0939494
0.555863 0.631135 0.0977103
0.613036 0.627622 0.108721
0.672798 0.620996 0.129356
0.74049 0.611562 0.161757
0.826 0.6 0.2
0.174 0.7 0.2
0.258882 0.721056 0.160944
0.326127 0.739354 0.129156
0.385462 0.752799 0.110031
0.442807 0.760868 0.100853
0.49987 0.763944 0.0986347
0.556933 0.762465 0.102324
0.614251 0.755351 0.112771
0.673675 0.742291 0.132473
0.740702 0.723243 0.163436
0.826 0.7 0.2
0.174 0.8 0.2
0.258408 0.833079 0.16305
0.32364 0.861923 0.133208
0.382288 0.880646 0.115473
0.440858 0.890693 0.107114
0.500299 0.894723 0.10528
0.559805 0.893047 0.108935
0.618411 0.88446 0.118794
0.677014 0.866681 0.137122
0.741919 0.836774 0.165954
0.826 0.8 0.2
0.174 0.9 0.2
0.25236 0.950961 0.165402
0.312486 0.986647 0.137069
0.371878 1.00644 0.120431
0.434993 1.01612 0.112529
0.500537 1.01962 0.110954
0.56641 1.01812 0.114776
0.630696 1.0109 0.124651
0.690733 0.993844 0.14216
0.747859 0.958451 0.168389
0.826 0.9 0.2
0.174 1 0.2
0.216795 1.06874 0.164505
0.279054 1.10419 0.136669
0.351636 1.12195 0.119568
0.425399 1.13017 0.11132
0.499362 1.13313 0.109751
0.57372 1.13214 0.114031
0.648881 1.12579 0.124733
0.725483 1.10934 0.143224
0.799113 1.07043 0.170291
0.826 1 0.2
0.174 0 0.3
0.201843 -0.0714592 0.278351
0.27549 -0.112362 0.260233
0.351732 -0.130754 0.247015
0.425592 -0.138439 0.239657
0.498071 -0.14042 0.237558
0.570467 -0.137829 0.240322
0.644028 -0.129273 0.248239
0.718175 -0.109951 0.261444
0.7828 -0.0712997 0.279531
0.826 0 0.3
0.174 0.1 0.3
0.252026 0.0390008 0.278552
0.310493 0.00170686 0.26041
0.370974 -0.0168743 0.247971
0.433939 -0.0252489 0.241061
0.497648 -0.0274109 0.239054
0.561096 -0.024365 0.24166
0.623363 -0.0145001 0.249134
0.683776 0.0064614 0.262102
0.746037 0.0453219 0.280356
0.826 0.1 0.3
0.174 0.2 0.3
0.258174 0.16124 0.277079
0.324865 0.129557 0.258254
0.383944 0.110433 0.245025
0.44108 0.101125 0.237895
0.498017 0.0987841 0.235896
0.555054 0.102392 0.238608
[...]
POINT_DATA 17261
SCALARS Displacements float 1
LOOKUP_TABLE default
0.174 0.120211 0.139254 0.159625 0.170024 0.172966 0.169384 0.157883 0.136658 0.119624 0.174 0.174 0.129864 0.14654 0.158616 0.165141 0.167197 0.165024 0.158037 0.145696 0.138648 0.174 0.174 0.127687 0.144401 0.155262 0.159542 0.16067 0.15948 0.154953 0.1454 0.139456 0.174 0.174 0.126233 0.141121 0.150303 0.153303 0.153812 0.153159 0.150197 0.142095 0.136107 0.174 0.174 0.125195 0.138852 0.146803 0.148806 0.148907 0.148589 0.146476 0.139394 0.134178 0.174 0.174 0.124795 0.138141 0.145682 0.147271 0.147182 0.146914 0.145153 0.138588 0.133907 0.174 0.174 0.125147 0.139104 0.14702 0.148938 0.148947 0.148546 0.146389 0.139427 0.134593 0.174 0.174 0.126202 0.141411 0.150545 0.153461 0.153865 0.153138 0.150074 0.141949 0.136128 0.174 0.174 0.127105 0.144278 0.15528 0.159686 0.160656 0.159414 0.155075 0.145528 0.138016 0.174 0.174 0.124446 0.145512 0.159088 0.165567 0.167363 0.165003 0.158133 0.146975 0.138761 0.174 0.174 0.1237 0.139493 0.159592 0.170076 0.173298 0.170169 0.15977 0.139864 0.124352 0.174 0.174 0.129794 0.146604 0.158684 0.165173 0.167197 0.165018 0.157994 0.145525 0.13843 0.174 0.174 0.164027 0.154637 0.154625 0.15697 0.158051 0.157452 0.155624 0.155502 0.163091 0.174 0.174 0.165523 0.155037 0.150877 0.149434 0.149146 0.149733 0.151426 0.155889 0.165101 0.174 0.174 0.165281 0.153152 0.14641 0.142676 0.141417 0.142888 0.14688 0.153713 0.164199 0.174 0.174 0.165064 0.151859 0.143512 0.138321 0.136419 0.138385 0.143703 0.151954 0.163315 0.174 0.174 0.165086 0.151527 0.142628 0.136903 0.134704 0.136815 0.14254 0.151317 0.163102 0.174 0.174 0.16529 0.152116 0.143691 0.138415 0.136388 0.138216 0.143429 0.151659 0.163191 0.174 0.174 0.165684 0.153553 0.146602 0.142756 0.141268 0.142589 0.146343 0.152882 0.16348 0.174 0.174 0.166081 0.155318 0.150861 0.14941 0.14894 0.149404 0.150997 0.155074 0.163664 0.174 0.174 0.163768 0.155036 0.154927 0.156974 0.157933 0.157181 0.15494 0.154849 0.163622 0.174 0.174 0.139397 0.146921 0.158096 0.164904 0.167464 0.165666 0.159114 0.145436 0.124066 0.174 0.174 0.127732 0.14444 0.155264 0.159509 0.160632 0.159403 0.154899 0.145492 0.14003 0.174 0.174 0.165525 0.155063 0.150835 0.149378 0.149083 0.149722 0.151509 0.155967 0.165037 0.174 0.174 0.165153 0.153255 0.142959 0.136299 0.13404 0.13632 0.142994 0.153797 0.166607 0.174 0.174 0.164477 0.149392 0.134599 0.123894 0.119979 0.123863 0.134631 0.14994 0.16553 0.174 0.174 0.163994 0.147187 0.129494 0.11599 0.110823 0.115884 0.129367 0.147343 0.164749 0.174 0.174 0.163813 0.146528 0.127945 0.113444 0.107729 0.113047 0.127448 0.146413 0.164351 0.174 0.174 0.164195 0.147447 0.129755 0.116103 0.110777 0.115675 0.129064 0.147009 0.164437 0.174 0.174 0.164962 0.149919 0.134855 0.123966 0.119849 0.123682 0.134259 0.149354 0.165085 0.174 0.174 0.16599 0.153566 0.142898 0.136098 0.133957 0.136257 0.142775 0.153381 0.165835 0.174 0.174 0.16434 0.155309 0.151089 0.149534 0.149126 0.149475 0.150926 0.155214 0.16602 0.174 0.174 0.140094 0.145313 0.154941 0.159539 0.160838 0.15982 0.15525 0.143988 0.126575 0.174 0.174 0.126282 0.141086 0.150267 0.153171 0.153689 0.15307 0.150078 0.142377 0.138703 0.174 0.174 0.165205 0.153093 0.146301 0.142523 0.141257 0.142772 0.14687 0.153927 0.16456 0.174 0.174 0.164459 0.149319 0.134503 0.123778 0.119824 0.123759 0.134598 0.149955 0.165581 0.174 0.174 0.163116 0.142964 0.121074 0.103486 0.0965782 0.103637 0.121549 0.14396 0.163906 0.174 0.174 0.162106 0.139069 0.112303 0.0890164 0.0791814 0.0891525 0.112707 0.139798 0.162635 0.174 0.174 0.161887 0.137928 0.10942 0.0839269 0.0727138 0.08385 0.109465 0.1382 0.162176 0.174 0.174 0.16235 0.139377 0.112597 0.089189 0.079161 0.0889877 0.112403 0.139433 0.162452 0.174 0.174 0.163578 0.143488 0.121371 0.103589 0.0966082 0.103532 0.121264 0.143394 0.163478 0.174 0.174 0.165154 0.149487 0.134382 0.123807 0.120043 0.12399 0.134843 0.149899 0.164929 0.174 0.174 0.163902 0.153187 0.146493 0.142861 0.141595 0.142821 0.146574 0.153455 0.165796 0.174 0.174 0.138018 0.141698 0.14985 0.153273 0.15409 0.153503 0.150335 0.141077 0.125647 0.174 0.174 0.125207 0.138779 0.146702 0.148603 0.14867 0.148376 0.14635 0.139527 0.135556 0.174 0.174 0.164965 0.151746 0.143335 0.138079 0.136174 0.138199 0.143654 0.152174 0.163711 0.174 0.174 0.163895 0.147028 0.129307 0.115742 0.110535 0.1157 0.129329 0.147398 0.164759 0.174 0.174 0.16215 0.13899 0.112179 0.0888357 0.0789596 0.0890964 0.112613 0.1398 0.162658 0.174 0.174 0.160856 0.133963 0.100219 0.0669816 0.0501343 0.0672337 0.100675 0.134511 0.161076 0.174 0.174 0.160481 0.132383 0.0961519 0.0582001 0.0360741 0.0583016 0.0963166 0.132587 0.160536 0.174 0.174 0.161074 0.134325 0.100541 0.0672441 0.0502465 0.0672378 0.100413 0.134185 0.160901 0.174 0.174 0.162614 0.13958 0.112543 0.0891322 0.0791477 0.0892022 0.112562 0.13934 0.162236 0.174 0.174 0.164666 0.147106 0.129157 0.115912 0.110937 0.116147 0.129761 0.147533 0.164109 0.174 0.174 0.163303 0.151611 0.143655 0.138657 0.137039 0.138572 0.143592 0.15207 0.16532 0.174 0.174 0.135062 0.139173 0.146244 0.148717 0.14936 0.148949 0.14685 0.138803 0.124551 0.174 0.174 0.124807 0.138036 0.145542 0.147062 0.146934 0.146653 0.144864 0.13839 0.134446 0.174 0.174 0.164966 0.151421 0.142426 0.136638 0.134449 0.136588 0.142406 0.15131 0.163242 0.174 0.174 0.163775 0.146347 0.127705 0.11313 0.107426 0.112905 0.127391 0.146417 0.164484 0.174 0.174 0.16185 0.137813 0.109293 0.0837145 0.072435 0.0837109 0.109495 0.138281 0.162131 0.174 0.174 0.16046 0.132344 0.0961186 0.0581201 0.0359429 0.0583966 0.0963802 0.13263 0.160538 0.174 0.174 0.160074 0.130642 0.0915265 0.0469894 0.000245573 0.0469886 0.0915294 0.130568 0.159934 0.174 0.174 0.160674 0.132707 0.0964371 0.0584612 0.0362114 0.0582584 0.0961429 0.132312 0.160428 0.174 0.174 0.162286 0.138424 0.109635 0.0839927 0.072802 0.0840505 0.109403 0.13786 0.161792 0.174 0.174 0.164525 0.14642 0.127555 0.113336 0.107937 0.11364 0.128033 0.146619 0.163798 0.174 0.174 0.163254 0.151313 0.142753 0.137314 0.135459 0.137069 0.142784 0.151491 0.165186 0.174 0.174 0.134385 0.138269 0.145125 0.147206 0.147503 0.147418 0.145641 0.137832 0.124201 0.174 0.174 0.12516 0.138984 0.146903 0.148769 0.14874 0.148279 0.146096 0.139289 0.13505 0.174 0.174 0.165185 0.151982 0.143493 0.138191 0.136154 0.137992 0.143273 0.151603 0.163253 0.174 0.174 0.164046 0.14729 0.129541 0.115862 0.11054 0.11551 0.129022 0.147067 0.164573 0.174 0.174 0.162263 0.139269 0.112443 0.0890229 0.0790277 0.0889758 0.112402 0.139564 0.162521 0.174 0.174 0.160984 0.134254 0.100561 0.0672415 0.0503611 0.0673403 0.100508 0.134228 0.160984 0.174 0.174 0.160613 0.132696 0.0964607 0.0586446 0.0364249 0.0584411 0.0962609 0.132466 0.160457 0.174 0.174 0.16118 0.134594 0.100888 0.0675114 0.0503924 0.0671835 0.100337 0.133984 0.160757 0.174 0.174 0.16271 0.139917 0.112842 0.0893115 0.0793917 0.0891691 0.112358 0.139092 0.162127 0.174 0.174 0.164808 0.147466 0.129578 0.116092 0.111031 0.116227 0.129615 0.147226 0.164027 0.174 0.174 0.163835 0.152189 0.143917 0.138897 0.137018 0.138692 0.143354 0.151907 0.165138 0.174 0.174 0.135576 0.139483 0.146447 0.148835 0.149383 0.148931 0.14658 0.138451 0.124513 0.174 0.174 0.126231 0.141354 0.150466 0.153328 0.153781 0.15292 0.149796 0.141909 0.138235 0.174 0.174 0.165545 0.153378 0.146453 0.142544 0.141153 0.142413 0.146309 0.153111 0.163855 0.174 0.174 0.16485 0.149733 0.134706 0.12385 0.119757 0.123564 0.134238 0.149452 0.165128 0.174 0.174 0.163509 0.143367 0.121314 0.103652 0.0967072 0.103688 0.121361 0.143458 0.1635 0.174 0.174 0.162571 0.139533 0.112566 0.0893611 0.079613 0.0895073 0.112662 0.139351 0.162261 0.174 0.174 0.162259 0.138437 0.109781 0.0843694 0.0732812 0.0843834 0.109619 0.137986 0.161862 0.174 0.174 0.162645 0.139884 0.112883 0.0896322 0.0795778 0.0893627 0.112487 0.139199 0.162133 0.174 0.174 0.163934 0.143996 0.121711 0.10384 0.0969104 0.103767 0.121236 0.143043 0.163121 0.174 0.174 0.165684 0.150066 0.134875 0.124044 0.120281 0.124002 0.134688 0.149415 0.164538 0.174 0.174 0.164678 0.153982 0.147083 0.143272 0.14186 0.143044 0.146505 0.153106 0.16538 0.174 0.174 0.138675 0.142349 0.150203 0.153381 0.154136 0.153369 0.150258 0.140763 0.125546 0.174 0.174 0.127174 0.144276 0.155231 0.159618 0.160738 0.159356 0.154978 0.145665 0.140374 0.174 0.174 0.165889 0.15516 0.150737 0.14928 0.148873 0.149362 0.15104 0.155418 0.164256 0.174 0.174 0.16576 0.15338 0.142768 0.136171 0.133978 0.136238 0.142872 0.153611 0.165939 0.174 0.174 0.165067 0.149426 0.134332 0.123925 0.120269 0.124297 0.135061 0.150048 0.164966 0.174 0.174 0.164613 0.14718 0.129277 0.116137 0.111413 0.116624 0.13001 0.147556 0.164162 0.174 0.174 0.16444 0.146572 0.127889 0.113682 0.108435 0.113898 0.128292 0.146651 0.163859 0.174 0.174 0.16473 0.147492 0.129621 0.116458 0.111331 0.116426 0.12967 0.147251 0.163986 0.174 0.174 0.165587 0.14999 0.134859 0.124242 0.120438 0.124207 0.134766 0.149414 0.16447 0.174 0.174 0.166745 0.153993 0.143074 0.136516 0.134251 0.136559 0.143026 0.153173 0.165114 0.174 0.174 0.165144 0.15596 0.151421 0.149887 0.149397 0.149481 0.150857 0.154891 0.165559 0.174 0.174 0.140075 0.145402 0.154954 0.159471 0.160843 0.159414 0.155197 0.143998 0.126931 0.174 0.174 0.124635 0.145762 0.159178 0.165566 0.167428 0.165073 0.158147 0.147149 0.139652 0.174 0.174 0.16338 0.154748 0.154797 0.156961 0.157919 0.157087 0.155014 0.155041 0.163768 0.174 0.174 0.163661 0.15499 0.150914 0.149411 0.149205 0.149689 0.151046 0.1553 0.165905 0.174 0.174 0.163561 0.152995 0.146521 0.142965 0.141889 0.143273 0.146873 0.153554 0.165567 0.174 0.174 0.163332 0.151917 0.143835 0.138841 0.137211 0.138991 0.143838 0.152075 0.16516 0.174 0.174 0.163287 0.151469 0.143063 0.137439 0.135512 0.137364 0.142732 0.151422 0.164849 0.174 0.174 0.16355 0.152227 0.144122 0.139083 0.13723 0.138873 0.143568 0.151912 0.16504 0.174 0.174 0.16447 0.15394 0.147156 0.143232 0.141984 0.143143 0.146533 0.15314 0.165238 0.174 0.174 0.165241 0.156045 0.151524 0.149964 0.149285 0.149548 0.150932 0.154971 0.165549 0.174 0.174 0.163392 0.155677 0.155757 0.157688 0.158295 0.156789 0.154758 0.15465 0.164173 0.174 0.174 0.138783 0.145571 0.158082 0.165127 0.167336 0.165041 0.15854 0.146293 0.128991 0.174 0.174 0.125108 0.140105 0.159851 0.170182 0.173371 0.170167 0.159738 0.139723 0.123895 0.174 0.174 0.13849 0.146767 0.158099 0.164979 0.167403 0.165594 0.159139 0.145486 0.124652 0.174 0.174 0.137753 0.145524 0.154978 0.159506 0.1609 0.15996 0.155499 0.144238 0.127213 0.174 0.174 0.135971 0.141936 0.150292 0.153389 0.154326 0.15378 0.150689 0.141477 0.126214 0.174 0.174 0.134445 0.139416 0.146717 0.14902 0.149569 0.1492 0.147136 0.138979 0.125139 0.174 0.174 0.133935 0.138718 0.145399 0.147521 0.147712 0.147659 0.145724 0.138119 0.124829 0.174 0.174 0.134226 0.13945 0.146748 0.149116 0.149573 0.149199 0.146802 0.138852 0.125202 0.174 0.174 0.136249 0.142191 0.150387 0.153547 0.1543 0.153575 0.150388 0.14113 0.126291 0.174 0.174 0.139638 0.145558 0.155204 0.159663 0.160878 0.159618 0.155424 0.144474 0.127637 0.174 0.174 0.138444 0.145603 0.158098 0.165156 0.167368 0.16511 0.158675 0.146538 0.129742 0.174 0.174 0.121395 0.137309 0.15804 0.169563 0.173012 0.16997 0.159647 0.139049 0.119906 0.174 0.169979 0.146418 0.153414 0.161259 0.1653 0.165266 0.161155 0.153274 0.147515 0.165592 0.169804 0.152612 0.154048 0.156881 0.15855 0.158657 0.157237 0.154682 0.155115 0.168991 0.169757 0.151567 0.151439 0.151833 0.151838 0.15194 0.152167 0.152191 0.154828 0.169179 0.169591 0.150393 0.148754 0.147467 0.146316 0.146336 0.147592 0.149134 0.152759 0.167734 0.169485 0.149758 0.147324 0.145144 0.143328 0.143268 0.145046 0.147472 0.152034 0.167997 0.16944 0.149813 0.147428 0.145217 0.143348 0.143213 0.144942 0.147362 0.151992 0.168054 0.169454 0.150544 0.149004 0.147639 0.146331 0.146162 0.147288 0.14887 0.152653 0.168123 0.169514 0.151696 0.151682 0.151995 0.151794 0.151658 0.151699 0.151674 0.153844 0.168193 0.169231 0.152021 0.154201 0.157101 0.158567 0.158472 0.156889 0.154392 0.154943 0.168352 0.167307 0.147868 0.15421 0.161504 0.165443 0.165481 0.161622 0.154305 0.147951 0.16739 0.16978 0.152723 0.154156 0.156919 0.158548 0.158656 0.157219 0.1546 0.155021 0.168973 0.171027 0.160796 0.152678 0.149218 0.147896 0.148025 0.14961 0.153275 0.160657 0.170419 0.170889 0.15971 0.148344 0.140718 0.136824 0.136917 0.140986 0.148707 0.159762 0.170527 0.170774 0.158523 0.144858 0.134405 0.128507 0.12851 0.134426 0.144861 0.158182 0.170358 0.17071 0.157983 0.143195 0.131298 0.12431 0.124199 0.131047 0.142861 0.157331 0.170271 0.170737 0.15808 0.143323 0.131389 0.124341 0.124129 0.130889 0.142674 0.157214 0.17026 0.170831 0.158826 0.145173 0.134627 0.128537 0.128288 0.134014 0.144409 0.157802 0.170328 0.170936 0.160049 0.148676 0.140912 0.136794 0.136648 0.140463 0.148049 0.159079 0.170486 0.170747 0.160666 0.152873 0.14927 0.147839 0.147865 0.149265 0.152695 0.160461 0.170693 0.169144 0.155381 0.15453 0.156916 0.158538 0.158717 0.15715 0.154169 0.151873 0.169261 0.169712 0.151619 0.151497 0.151819 0.151777 0.151889 0.152123 0.152225 0.154985 0.169088 0.170908 0.159683 0.148296 0.140658 0.136755 0.136822 0.140934 0.148764 0.159862 0.170529 0.170516 0.156802 0.140031 0.1259 0.117915 0.118046 0.12629 0.140609 0.157474 0.1705 0.170218 0.154407 0.133521 0.114189 0.102294 0.102425 0.114508 0.133976 0.154952 0.170225 0.170064 0.153283 0.13036 0.108198 0.0939082 0.0939298 0.108281 0.130539 0.153605 0.170039 0.17009 0.153361 0.130496 0.108305 0.0939228 0.0938232 0.108102 0.130354 0.153472 0.170007 0.170259 0.154714 0.133831 0.114434 0.102327 0.102209 0.114141 0.133569 0.154635 0.170146 0.170515 0.157157 0.140298 0.126066 0.117926 0.117938 0.126016 0.140212 0.157073 0.170451 0.170571 0.159315 0.148239 0.140604 0.136765 0.136907 0.14095 0.14861 0.160011 0.17088 0.169314 0.154572 0.151806 0.151817 0.151884 0.151957 0.152038 0.151571 0.15152 0.169494 0.169526 0.15041 0.148768 0.147399 0.146184 0.1462 0.147533 0.149296 0.153539 0.168987 0.170796 0.158455 0.144744 0.134259 0.128332 0.128345 0.134337 0.144955 0.158435 0.170385 0.170223 0.154374 0.133451 0.114074 0.10215 0.10231 0.114455 0.134019 0.154999 0.170234 0.169789 0.1509 0.123986 0.0962812 0.0769588 0.0771681 0.0967632 0.124618 0.15146 0.169856 0.169577 0.149211 0.11917 0.0863166 0.0609331 0.0610778 0.0866384 0.119547 0.149555 0.169593 0.169593 0.149328 0.119321 0.0864617 0.0609658 0.0609791 0.0864782 0.119381 0.149445 0.169603 0.169836 0.151216 0.124318 0.0965755 0.0770793 0.0770488 0.0964688 0.124243 0.151176 0.169789 0.170212 0.154695 0.133688 0.114281 0.102321 0.102337 0.114371 0.133797 0.154658 0.170237 0.170392 0.157909 0.144548 0.134206 0.128556 0.128686 0.134625 0.145121 0.158815 0.170816 0.168292 0.152686 0.148856 0.147419 0.146477 0.146569 0.147665 0.148917 0.150334 0.169481 0.169413 0.149734 0.14731 0.145044 0.143151 0.143099 0.144892 0.147384 0.151959 0.167771 0.170737 0.157863 0.143034 0.131103 0.124089 0.124023 0.130908 0.142875 0.157492 0.170227 0.170073 0.153186 0.130223 0.108007 0.0936751 0.0937304 0.108229 0.130561 0.153617 0.170043 0.169569 0.149189 0.119105 0.086232 0.0607976 0.0610023 0.0866562 0.119582 0.149569 0.169593 0.169326 0.147189 0.113272 0.0731534 0.0342689 0.0344953 0.0734688 0.113548 0.147367 0.1693 0.169341 0.147311 0.113433 0.0733298 0.0343841 0.0343796 0.0733075 0.11338 0.147281 0.169301 0.169616 0.149499 0.119465 0.0865635 0.0610135 0.0609615 0.0864115 0.119268 0.149307 0.169545 0.170063 0.15351 0.130456 0.108249 0.0939446 0.0939685 0.108277 0.130451 0.153355 0.170038 0.170285 0.157309 0.142805 0.131115 0.124462 0.124535 0.131455 0.143309 0.158127 0.170714 0.168184 0.151897 0.147294 0.145101 0.143603 0.14369 0.145298 0.147355 0.149604 0.169436 0.169378 0.149796 0.147415 0.145118 0.143184 0.143026 0.144736 0.147213 0.151927 0.168056 0.17074 0.15797 0.143156 0.131211 0.12414 0.123944 0.130767 0.142713 0.157329 0.170213 0.170073 0.153289 0.130353 0.108137 0.0937554 0.0936922 0.108118 0.130439 0.153526 0.170006 0.169571 0.14928 0.119242 0.0863841 0.0609572 0.0610196 0.0865729 0.119467 0.149498 0.169567 0.169326 0.147282 0.113416 0.0733582 0.0345599 0.0345999 0.0734312 0.113476 0.147313 0.169296 0.169349 0.147407 0.113593 0.0735059 0.034629 0.0344853 0.0732602 0.113305 0.147196 0.169297 0.169625 0.149607 0.119622 0.0867239 0.061154 0.060954 0.0863513 0.119174 0.149199 0.169538 0.170078 0.153632 0.130641 0.108385 0.0939926 0.0939552 0.108197 0.130339 0.153264 0.170031 0.170302 0.157469 0.142979 0.131258 0.124516 0.124536 0.131384 0.143178 0.157993 0.170702 0.167916 0.151918 0.147424 0.145197 0.143705 0.143698 0.145237 0.147239 0.149542 0.16951 0.169395 0.150544 0.149003 0.147568 0.146222 0.146025 0.147122 0.148787 0.152777 0.168177 0.170832 0.158688 0.145016 0.134496 0.128413 0.128187 0.133936 0.144435 0.157937 0.170315 0.170236 0.154614 0.133726 0.114346 0.102297 0.10223 0.114221 0.133681 0.154709 0.170154 0.169824 0.151161 0.124267 0.0966322 0.0772735 0.0773017 0.096702 0.124378 0.151227 0.169794 0.169605 0.149464 0.119498 0.0867506 0.0613919 0.0614008 0.0866996 0.11942 0.149365 0.169543 0.169607 0.149582 0.119657 0.086885 0.0614321 0.0612524 0.0865631 0.119282 0.149275 0.169541 0.169877 0.15147 0.124654 0.0969353 0.0774127 0.077156 0.0964396 0.124108 0.150963 0.169748 0.17028 0.154956 0.134067 0.114606 0.102546 0.102394 0.114208 0.133525 0.15443 0.170174 0.170459 0.158382 0.145024 0.134619 0.128739 0.128731 0.134471 0.144797 0.158545 0.170754 0.169121 0.153508 0.149316 0.147777 0.146706 0.146586 0.14754 0.148632 0.150151 0.169627 0.169445 0.151712 0.151704 0.151967 0.151765 0.151625 0.151693 0.151812 0.154647 0.169199 0.17089 0.159895 0.148542 0.140861 0.136784 0.136621 0.140503 0.148204 0.159357 0.170498 0.170455 0.157045 0.14021 0.12609 0.118081 0.118109 0.126167 0.140387 0.157181 0.170475 0.170172 0.154656 0.133673 0.114429 0.102639 0.102781 0.114697 0.133959 0.154729 0.170229 0.170017 0.15353 0.130557 0.108482 0.094383 0.0944869 0.108649 0.130644 0.153406 0.170041 0.170038 0.153618 0.130716 0.108641 0.0944283 0.0943703 0.108471 0.130469 0.153289 0.170036 0.170242 0.154924 0.134074 0.114743 0.102786 0.102601 0.114372 0.133622 0.154413 0.170178 0.170525 0.157505 0.140645 0.126423 0.118228 0.118111 0.126001 0.14005 0.156775 0.17048 0.170575 0.159846 0.148752 0.14111 0.137071 0.136955 0.14073 0.148267 0.159678 0.170869 0.169206 0.154923 0.152238 0.152272 0.152153 0.152034 0.15185 0.151293 0.151296 0.169798 0.169172 0.152095 0.154267 0.157106 0.158588 0.158525 0.156967 0.154589 0.155449 0.169002 0.170652 0.160359 0.152677 0.14922 0.147878 0.147911 0.149394 0.152944 0.160688 0.170655 0.170471 0.159043 0.148106 0.140644 0.136926 0.137145 0.141202 0.14886 0.160071 0.170864 0.17033 0.157869 0.144599 0.134395 0.128844 0.12911 0.135001 0.14535 0.158806 0.170777 0.170255 0.157326 0.142977 0.131349 0.124778 0.124926 0.131775 0.143476 0.158022 0.170676 0.170279 0.157423 0.143126 0.131516 0.124844 0.124887 0.131634 0.143287 0.157913 0.170651 0.17039 0.158218 0.145048 0.134713 0.12901 0.12897 0.134624 0.14491 0.158491 0.170714 0.170574 0.159806 0.148756 0.14116 0.137147 0.137038 0.140819 0.148337 0.159625 0.170836 0.170488 0.160627 0.153353 0.14973 0.14818 0.147956 0.149219 0.152571 0.160756 0.170972 0.169102 0.154992 0.154614 0.157258 0.158803 0.158631 0.156859 0.153949 0.152386 0.169858 0.167466 0.148117 0.154365 0.161582 0.165483 0.165521 0.16159 0.154324 0.147977 0.167247 0.168706 0.154777 0.154319 0.156884 0.158566 0.158745 0.157281 0.154331 0.152176 0.16918 0.168558 0.15379 0.151704 0.151869 0.151974 0.152239 0.152342 0.151875 0.15181 0.169416 0.168473 0.152623 0.149027 0.14768 0.146753 0.146895 0.148002 0.149128 0.150574 0.169366 0.16839 0.152027 0.147638 0.14543 0.143877 0.143956 0.145505 0.147475 0.149796 0.169334 0.168323 0.152081 0.147681 0.145544 0.143944 0.143965 0.145392 0.147364 0.14975 0.169378 0.168037 0.1528 0.149299 0.147976 0.146927 0.146849 0.147694 0.148795 0.150409 0.169517 0.169355 0.15488 0