# vtk DataFile Version 5.1
vtk output
ASCII

DATASET UNSTRUCTURED_GRID
POINTS 5212 float
-0.4801 -0.1 2.07
-0.4801 0.2001 2.07
-0.4656 -0.1 2.2163
-0.4656 0.2001 2.2163
-0.46264 -0.0986152 1.91392
-0.4656 0.2001 1.9237
-0.423 -0.1 2.357
-0.423 0.2001 2.357
-0.423 -0.1 1.783
-0.423 0.2001 1.783
-0.3536 -0.1 2.4867
-0.3536 0.2001 2.4867
-0.3536 -0.1 1.6533
-0.3536 0.2001 1.6533
-0.2604 -0.1 2.6004
-0.2604 0.2001 2.6004
-0.266095 -0.1 1.54655
-0.2604 0.2001 1.5396
-0.183027 0.2001 1.85729
-0.1744 2.2301 2.5994
-0.167087 0.2001 1.74319
-0.155488 2.23929 2.5297
-0.154028 2.2229 2.66768
-0.1547 0.2205 1.69
-0.152608 2.23314 2.59963
-0.1467 -0.1 2.6936
-0.1467 0.2001 2.6936
-0.1467 -0.1 1.4464
-0.1467 0.2001 1.4464
-0.140594 0.2001 2.01817
-0.1384 2.5483 2.6375
-0.1376 2.23827 2.57512
-0.136691 2.23236 2.62384
-0.12932 2.54288 2.62314
-0.128587 2.53771 2.6498
-0.128998 2.58788 2.64216
-0.123556 2.57182 2.62777
-0.123239 2.56843 2.65204
-0.106123 2.53683 2.65844
-0.110355 2.54827 2.61545
-0.1072 2.2544 2.479
-0.0967212 2.47955 2.65599
-0.10398 2.22454 2.71818
-0.102007 2.23543 2.63833
-0.104303 2.24469 2.56102
-0.0990997 2.3908 2.61534
-0.101233 2.52403 2.63555
-0.0982813 2.11919 2.58466
-0.0991819 2.52316 2.60872
-0.097012 2.33503 2.61182
-0.0944628 2.40387 2.58606
-0.0959225 2.39188 2.65083
-0.0936985 2.51438 2.65838
-0.0884635 2.30332 2.56667
-0.0903224 2.31385 2.64673
-0.0884818 2.12677 2.54502
-0.0873938 2.44501 2.62238
-0.0868104 2.1146 2.62421
-0.226753 0.2001 2.34915
-0.0836273 2.44873 2.59279
-0.0847912 2.43799 2.65473
-0.0787363 2.51105 2.65972
-0.0763 1.9631 2.5653
-0.0750599 2.25806 2.55642
-0.074459 0.871561 2.06469
-0.0752682 2.24385 2.60096
-0.0736901 2.45613 2.59277
-0.0749448 2.51773 2.60432
-0.0780595 2.26513 2.64509
0.04874 0.68348 1.90622
-0.0716 2.5048 2.6311
0.530591 -0.1 2.46958
-0.0698102 2.25038 2.55426
-0.0689923 2.23955 2.64444
-0.0664 1.9694 2.5255
-0.012538 0.0126213 1.54304
-0.0652965 2.46542 2.62655
-0.0659009 2.45039 2.65739
-0.0647253 2.5126 2.65951
-0.065 1.9598 2.605
-0.0596058 2.45877 2.59254
-0.0596671 2.13186 2.51567
-0.0576633 2.11777 2.65364
-0.0556668 2.52695 2.60761
-0.0538 0.2699 1.5612
-0.0514109 2.52536 2.65835
-0.0489744 2.52953 2.63459
-0.0474566 0.842178 2.17515
-0.0472 0.9252 1.9502
-0.0462893 2.55783 2.61565
-0.0465145 1.96737 2.56485
-0.0447071 2.55625 2.65739
-0.0412893 2.45086 2.59391
-0.0435396 2.4466 2.65515
-0.0401152 1.97131 2.54015
-0.0398243 2.58734 2.6303
-0.0385438 2.58007 2.65166
-0.0396752 1.96524 2.58995
-0.0393873 2.60035 2.64214
-0.0378298 2.449 2.62115
-0.0365532 2.26666 2.46081
-0.0379 1.9771 2.4965
-0.03775 0.2001 2.15248
-0.0347424 2.24902 2.60529
-0.0355 1.9603 2.6341
-0.479822 0.0587755 2.0672
-0.0324186 2.23287 2.73814
-0.0277 2.5654 2.6251
-0.0264655 2.55208 2.65002
-0.0301731 2.48193 2.60002
-0.0223711 0.2001 2.16173
-0.0210259 1.97633 2.52183
-0.0214241 1.96555 2.60797
-0.0205552 2.14134 2.50533
-0.019723 2.5654 2.63755
-0.0178618 2.12197 2.66422
-0.017 -0.1 2.763
-0.017 0.2001 2.763
-0.017 -0.1 1.377
-0.017 0.2001 1.377
-0.0157474 2.39378 2.6504
-0.0153681 0.2001 2.11516
-0.0134654 2.40198 2.61804
-0.011791 1.37558 2.17955
-0.00263975 2.26002 2.55443
-0.002044 2.32593 2.5687
-0.25939 0.0444697 2.60123
-0.00104908 2.24906 2.64309
-0.000503238 2.32619 2.64667
-0.000854007 2.28605 2.56016
0.000860663 2.27744 2.64509
-0.00219126 1.98436 2.48692
0.0046008 1.98075 2.51486
0.00357468 2.25503 2.59999
0.00301951 2.32883 2.60595
0.00377721 1.96823 2.61496
0.00837816 1.96531 2.6436
0.00459883 2.28941 2.60007
0.0092 1.7515 2.4509
0.0132064 1.48011 2.28147
0.0104 1.5131 2.1356
0.0104 1.268 2.0769
0.0174143 0.709357 2.25499
0.019242 2.1456 2.51595
0.019107 1.54503 2.48909
0.0215991 2.12891 2.65364
0.0236902 1.82081 2.4961
0.0257478 2.2531 2.6408
0.0325123 2.26388 2.56145
0.0269205 1.98298 2.52229
0.0252926 0.806313 2.27071
0.149825 0.2001 2.52843
0.026449 1.97221 2.60879
0.0314757 0.980515 1.86216
0.0295 1.648 2.3834
0.0301125 1.09153 2.45463
0.0301274 1.27985 2.08833
0.0312827 1.07089 2.4685
0.0321009 2.27194 2.48035
0.0315 1.6093 2.2284
0.0315 1.4168 2.0428
0.0325944 1.06648 2.44785
0.0360802 1.07945 2.42493
0.0345448 1.08774 2.48094
0.0337417 1.51239 2.54344
0.0355299 1.10774 2.46625
0.0350799 1.09869 2.42874
0.0371881 2.24512 2.71818
0.0341481 1.8539 2.50354
0.0338899 1.23724 2.0461
0.70114 0.2001 2.26913
0.0348063 1.10974 2.44372
0.0390106 1.05069 2.46821
-0.00054754 0.718464 1.75063
0.0358697 1.06622 2.48125
0.0417222 1.10264 2.48513
0.0423083 1.12354 2.45329
0.0398434 1.3547 2.16057
0.0422338 1.98821 2.49732
0.0437959 1.05888 2.42236
0.0413014 1.04812 2.44648
0.0414283 1.38319 2.22495
0.141293 0.760493 1.84325
0.0434529 1.87088 2.50915
0.0437 1.9715 2.6341
0.0447368 1.12578 2.33161
0.0503148 0.88111 2.17379
0.0473722 1.07498 2.40437
0.0450254 1.14426 2.28619
0.0450553 1.05304 2.48627
0.0467334 1.09821 2.39991
0.0455026 1.98326 2.54087
0.0456237 1.11193 2.3187
0.0458962 1.08742 2.49564
0.0461986 1.97729 2.59011
0.0445551 1.40277 2.20695
0.0444218 1.07032 2.49493
0.0475128 1.14556 2.33501
0.0447191 1.12037 2.41841
0.048489 1.11641 2.36359
0.048079 1.83226 2.50357
0.0499873 1.1088 2.29337
0.0486988 2.13612 2.62598
0.0488118 2.14617 2.54506
0.0503314 1.09905 2.35971
0.0456972 1.11624 2.47754
0.0538506 1.04306 2.4271
0.0485238 1.04134 2.47141
0.0508047 1.03778 2.45131
0.0512547 1.17196 2.29537
0.0521391 0.2001 1.9853
0.0523282 1.9812 2.56548
0.0559465 1.10273 2.49449
0.0540315 1.09101 2.32714
0.0572317 1.05997 2.40117
0.0556263 1.09984 2.38394
0.0538768 1.13582 2.36758
0.057734 1.1645 2.33922
0.0601756 1.1395 2.44541
0.0585369 1.43514 2.23815
0.0582583 1.03425 2.46237
0.0579271 1.04045 2.48066
0.0536392 1.12963 2.46551
0.0583848 1.08246 2.35874
0.0569664 1.05623 2.49562
0.0580856 1.89476 2.53043
0.0538635 1.0527 2.29985
0.0533422 1.13551 2.42538
0.0592812 1.08334 2.50122
0.0595366 1.08728 2.30605
0.0576449 1.11958 2.38544
0.0670451 1.06934 2.50015
0.0600999 2.14288 2.58482
0.0571871 1.35212 2.29506
0.061783 1.86874 2.52735
0.063235 1.03288 2.44272
0.0618076 1.90425 2.55048
0.0615359 1.18548 2.30936
0.0596949 1.08121 2.38319
0.0597683 1.12223 2.48067
0.0648475 2.26674 2.57478
0.0676343 1.11208 2.48988
0.0730893 1.0448 2.48437
0.0706765 1.03565 2.47126
0.0660417 0.442149 2.02344
0.0661148 2.26087 2.62365
0.0681759 1.07171 2.3458
0.0693983 1.09763 2.24793
0.068581 1.14631 2.41939
0.0711728 1.07345 2.31574
0.0718856 1.03799 2.42105
0.0772487 1.06062 2.49349
0.0709 1.9887 2.5255
0.0707399 1.13537 2.46373
0.0690813 1.1436 2.38417
0.0728583 1.03198 2.45648
0.0719833 1.58324 2.34121
0.0723 1.9791 2.605
0.0748378 1.17251 2.35678
-0.28882 0.2001 2.1982
0.0728753 1.05341 2.39486
0.0709997 1.09596 2.49702
0.0800779 1.56744 2.36564
0.0767181 1.62821 2.09566
0.0813711 1.07744 2.27397
0.0774219 1.14636 2.43515
0.076221 1.19565 2.32046
0.078142 1.07982 2.49667
0.0690971 1.25043 1.9978
0.0765951 0.443318 2.01125
0.34973 0.0218059 1.49921
0.0762172 1.12473 2.4773
0.0762043 1.03265 2.43946
0.0782641 1.1133 2.20331
0.0739191 1.06972 2.37574
0.0867778 1.60395 2.35473
0.0811098 2.26597 2.59923
0.090807 1.24072 1.97374
0.0822 1.9854 2.5653
0.0828685 0.988099 2.14939
0.081683 2.27385 2.5288
0.0837555 1.10922 2.48694
0.084793 0.935608 2.16024
0.087411 0.988733 2.17934
0.0851329 1.03399 2.4517
0.0848759 2.25586 2.66812
0.213891 0.0961839 1.44902
0.0880114 1.06589 2.30527
0.0833199 0.949886 2.13478
0.0893554 1.15184 2.39015
0.0848954 1.03961 2.164
0.874821 0.107505 1.96847
0.0886266 1.06176 2.34168
0.0871 1.9428 2.5756
0.0914585 1.05049 2.39746
0.0869228 1.23005 2.25956
0.0859219 1.0406 2.46686
0.0891719 1.0688 2.22201
0.0897181 1.09059 2.22517
0.0885854 1.05383 2.48006
0.0848681 1.24469 2.33361
0.109071 0.2001 2.67616
0.0908639 0.923897 2.18552
0.0950295 0.8159 2.1644
0.0896749 1.70218 2.17137
0.0911851 1.5657 2.0348
0.0901752 1.32994 1.96633
0.0919459 1.06991 2.48465
0.0919924 1.68976 2.308
0.0925205 1.06326 2.37407
0.100884 1.2082 2.32395
0.0910485 0.855542 2.13871
0.0942834 0.930224 2.11101
0.0900966 1.07782 2.16769
0.0937011 1.03817 2.1918
0.0927027 1.14998 2.42068
0.33905 0.894788 1.85151
0.0925354 1.17065 2.37107
0.0967487 0.84315 2.18542
0.0971155 1.11598 2.16786
0.10615 1.06434 2.49664
0.0971483 0.999477 2.20098
0.097 0.303 1.4751
0.0980633 1.25174 2.21484
0.099977 0.866625 2.07324
0.0984385 1.0688 2.19795
0.267116 0.2001 2.53696
0.102706 0.43085 2.12727
0.0994519 1.09861 2.19225
0.798114 0.2001 2.18087
0.102333 1.3576 2.34912
0.10541 0.750646 2.16888
0.102312 2.26863 2.60175
0.10805 1.06091 2.30861
0.100754 0.774026 2.14702
0.110448 1.23573 2.27815
0.1071 1.14921 2.39419
0.105673 1.16475 2.41762
0.10414 0.898321 2.20729
0.105652 0.842456 2.10557
0.121221 1.62657 2.37052
0.103297 1.06904 2.26925
0.107789 1.05694 2.40687
0.108082 1.06539 2.37861
0.108428 1.05967 2.35182
0.108218 1.51821 2.31818
0.106765 0.781106 2.18989
0.109772 0.758615 2.12181
0.108955 0.841588 2.20785
0.109081 1.43793 2.3141
0.110263 1.49428 2.33348
-0.342093 0.0681984 2.05959
0.704006 0.2001 2.47422
0.115805 1.49289 2.35472
0.11397 1.54491 2.34391
0.0586076 0.048703 1.70465
0.411816 0.0839426 1.68854
0.10847 1.14192 2.4149
0.115012 1.52769 2.35912
0.114178 1.80395 2.48512
0.560023 0.2001 2.43794
0.118003 1.45155 2.34615
0.112162 1.24893 2.24879
0.117062 1.13502 2.40022
0.122603 1.01475 2.22867
0.117232 0.694311 2.16405
0.118817 1.07395 2.38784
0.122371 0.75905 2.20783
0.119547 0.492228 2.04375
0.121687 0.686665 2.13775
0.126639 1.15647 2.38324
0.114579 1.17571 2.37007
0.119896 1.43594 2.23891
0.119238 1.27519 2.18239
0.125829 1.20837 2.32952
0.118388 1.35855 2.28981
0.121705 0.524773 2.0886
0.121135 0.550898 2.0591
0.119813 1.07628 2.40617
0.119141 1.12563 2.41052
0.124843 1.46789 2.36483
0.122545 0.444795 1.99286
0.127786 1.26831 2.21282
0.122622 0.43999 2.0385
0.121896 0.571439 2.0891
0.127958 0.820704 2.22394
0.125812 0.848433 2.08224
0.123586 1.57404 2.372
0.1237 -0.1 2.8056
0.1237 0.2001 2.8056
0.127591 -0.1 1.33401
0.1237 0.2001 1.3344
0.126345 1.32843 2.30259
0.126866 1.33316 2.25519
[...]
POINT_DATA 5212
SCALARS weights float 1
LOOKUP_TABLE default
1.01443 0.725589 0.540522 1.15907 0.785776 1.04466 0.45886 1.02374 0.909829 0.948818 0.500033 0.489127 0.963003 0.725999 0.5741 1.108 0.515294 0.367643 1.8598 0.00924625 0.868871 0.0260866 0.0219615 0.142203 0.00471429 1.0317 0.503746 0.997256 0.688709 1.63535 0.00144918 0.0482733 0.0451497 0.00619819 0.00551737 0.000399819 0.00126533 0.00323642 0.00210814 0.00342577 0.023128 0.00995335 0.0507205 0.0747962 0.0641849 0.0308506 0.0131517 0.135084 0.00365655 0.0397966 0.0062345 0.0122286 0.00285686 0.0261513 0.0153915 0.0509296 0.0102206 0.0501298 1.16358 0.00240868 0.00777377 0.00134409 0.0145068 0.00349643 0.520114 0.0397224 0.000405142 0.00568768 0.00463427 1.58957 0.00908974 1.41669 0.0333858 0.128804 0.00950286 3.20674 0.00631102 0.00478098 0.00669148 0.01302 0.0024879 0.0871031 0.0859135 0.00450569 0.551993 0.00517459 0.020697 0.163818 0.784681 0.0031063 0.0169182 0.00110602 0.0035616 0.00761717 0.0226009 0.000992723 0.00393774 0.0230165 0.000293489 0.0146647 0.0240955 0.00954273 0.166051 0.0279118 0.0115158 0.48943 0.0467372 0.005964 0.0056407 0.0119191 0.0464649 0.0298203 0.0192707 0.0673003 0.00539477 0.0655033 0.926495 0.618757 0.764955 0.88993 0.00795457 0.43222 0.0353914 0.0546133 0.0542852 0.0164301 0.413869 0.113481 0.0190254 0.00352125 0.00518811 0.00784162 0.0452706 0.0499738 0.0382743 0.0228528 0.019344 0.0276122 0.0158758 0.0381347 0.351177 0.00847144 0.0300882 0.0534251 0.0105229 0.0453051 0.0335915 0.0701214 0.0881291 0.0124977 0.0372403 1.20933 0.0283944 0.353738 0.00966367 0.00574195 0.093829 0.00314868 0.044464 0.247557 0.473612 0.00560827 0.0043508 0.0042231 0.0229527 0.00204287 0.00764218 0.0437546 0.0195441 0.0394944 0.413641 0.00215508 0.00152374 1.25424 0.00183492 0.00229171 0.0028657 0.124737 0.0231157 0.00716814 0.0033317 0.0441939 2.5212 0.0157085 0.00986249 0.0171672 0.0711501 0.00371876 0.072495 0.00128713 0.0108759 0.0236148 0.00834563 0.00093498 0.0229625 0.0339728 0.0010683 0.00851359 0.00974659 0.00714714 0.0369891 0.0267704 0.104898 0.0928024 0.00473161 0.00168801 0.00457411 0.00103381 0.00229236 0.0154803 0.479825 0.0186619 0.00249303 0.0110069 0.00277254 0.00829191 0.00614342 0.0125703 0.003615 0.0686102 0.00116697 0.00117096 0.0015616 0.00364421 0.00217427 0.038515 0.0214007 0.00846335 0.000922056 0.00950648 0.00864419 0.00110671 0.099161 0.0589228 0.0377185 0.00168156 0.0194622 0.00446471 0.00653169 0.00175043 0.0331584 0.00213501 0.00223783 0.0012407 0.0365116 0.0406697 0.00852835 0.102971 0.00449832 0.00932472 0.00434366 0.00146637 0.0156795 0.0103253 0.023795 0.000612415 0.0314155 0.0133468 0.00714225 1.21383 0.00382947 0.0018491 0.0110748 0.541251 0.0164172 0.0168372 0.00680791 0.00145953 0.0452152 0.0214962 4.10497 0.00434714 0.0014647 0.121684 0.00882752 0.0232012 0.0208154 0.02937 0.0106596 0.0646084 0.0186926 0.00869527 0.0170243 0.0509253 0.00719056 0.0296257 2.45848 0.00879594 0.0821342 0.00764386 0.113152 1.8466 0.00624396 0.0242752 0.00397374 0.0639466 0.00476006 0.00266681 0.0433788 0.00556024 0.00135176 0.356868 0.04571 0.0231899 0.182951 0.586979 0.0423526 0.00724277 0.101654 0.0028322 0.0121694 0.0172287 0.0551848 0.0720683 0.00882306 0.00702945 1.94986 0.00847157 0.0255272 0.0689616 0.00897984 0.042969 0.656171 0.0795365 0.0603487 0.00853676 0.408526 0.0292572 0.0557593 1.16952 0.0104229 0.0188373 0.0119961 0.011887 0.0163526 0.0147565 0.00655323 0.00451883 0.0652863 0.020452 0.0533039 0.0171964 0.0105394 0.00382924 0.00817975 0.0297092 0.0247421 0.0229359 0.0486831 0.0156719 0.00841901 4.24986 1.19432 0.00839639 0.0237034 3.0289 2.19299 0.0035211 0.00957665 0.0632892 0.752508 0.00422661 0.00885886 0.00394393 0.0343397 0.0115762 0.00370974 0.0523189 0.0313342 0.0159802 0.00895621 0.0115903 0.0490844 0.0536894 0.0188279 0.0143876 0.0258268 0.0250194 0.0071153 0.0081644 0.0192423 0.0316359 0.0130315 0.0341297 0.0118553 0.0458117 0.0326238 0.0417833 0.785669 0.756172 0.54985 0.815056 0.0177194 0.0161849 0.0251749 0.0168041 0.0242821 0.00460839 0.0108145 0.00798124 0.00359498 0.123487 0.118208 0.0417246 0.0587182 0.021182 0.0184813 0.00503713 0.0170846 0.0241606 0.0605514 0.00284609 0.0393497 0.311029 0.0200713 0.0261472 0.0800195 0.0399956 0.0468293 0.0356982 0.0154264 0.0679858 0.0305507 0.0231573 0.0343488 0.00664803 0.0299566 0.0232978 0.00257623 0.209754 0.0233309 0.0554051 0.0159697 0.0870926 0.00551463 0.0217332 0.0155896 0.0360924 0.031632 0.372355 0.0117687 0.0206613 0.00523803 0.12498 0.0101239 0.0206709 0.0231765 0.0181137 0.0173792 0.0384353 1.03062 0.0509018 0.743647 0.0027139 0.0628353 0.0637298 0.0206101 0.247384 0.00402518 0.00691533 0.0269633 0.0302548 0.0225208 0.0173484 0.0228955 0.0192144 0.0290738 0.00581917 0.026899 0.0870251 0.00699649 0.0210711 0.00729855 0.0400527 0.0174207 0.0367914 0.0722816 0.041903 0.0138054 0.0146738 0.0109291 0.0413595 0.037435 0.0541019 0.00698408 0.0062723 0.137655 0.0534486 0.0864708 0.0378156 0.0585252 0.0791041 0.0110075 0.0326545 0.0340796 0.0518699 0.0110587 0.0214562 0.042335 0.00997848 0.0171702 0.0763958 0.046044 0.0127279 0.0704027 0.0483637 0.0542762 0.0124216 0.05754 0.0235801 0.0678714 0.0273177 0.029074 0.243222 0.0230521 0.027675 0.0625617 0.00545316 0.0243081 0.00894254 0.00787856 0.00980541 0.0152182 0.0499166 0.0175636 0.0295827 0.0126735 0.0150848 0.0147528 0.0346152 0.0123242 0.0346029 0.0284856 0.0395197 0.0121701 0.0216781 0.0217466 0.150112 0.0306752 0.0559003 0.0120997 0.00899526 0.0153745 0.048243 0.0351905 0.0357245 0.0588496 0.0214049 0.0135759 0.112955 0.0403813 0.010002 0.0327694 0.067949 0.0579952 0.0596958 0.0229111 0.0538468 0.0393643 0.151066 0.0512042 0.077469 0.0197778 0.148573 0.146808 0.143233 0.015021 0.0108158 0.0221886 0.00937769 0.0246649 0.0535016 0.0617249 0.0208468 0.0173414 0.00588256 0.00945714 0.0588139 0.0165281 0.025233 0.050577 0.00666328 0.010153 0.00531394 0.0586921 0.0169362 0.0694092 0.0185057 0.0426563 0.0396081 0.0122712 0.0117983 0.0158095 0.013789 0.0337132 0.00698569 0.0276393 0.00234051 0.01008 0.0198111 0.0185771 0.0304904 0.0129424 0.0338861 0.0451508 0.0848768 0.0147443 0.0178973 0.0367927 0.0289846 0.0103193 0.0530279 0.0242405 0.0217576 0.0299974 0.0258947 0.0538691 0.00962269 0.0237681 0.294132 0.441571 0.0187618 0.0247237 0.0228323 0.00582792 0.0245142 0.00843765 0.0212037 0.00480915 0.125087 0.0132466 0.0455196 0.0575286 0.00698977 0.0668194 0.0687876 0.0376113 0.0825825 0.0121522 0.0346349 0.0140428 0.196315 0.00829105 0.599532 0.106744 0.00667339 0.0320628 0.0129879 0.0357159 0.0150492 0.0832824 0.013554 0.0105157 0.0224473 0.032856 0.0128762 0.0939604 0.0431447 0.155157 0.00487797 0.0108366 0.0937075 0.0325905 0.0338043 0.0189052 0.00735974 0.0102287 0.0481469 0.0459368 0.0145587 0.0503997 0.0136851 0.0461692 0.0182692 0.0184048 0.0353458 0.0157364 0.021312 0.0493034 0.0937737 0.0048 0.0313837 0.00696742 0.00752578 0.0214618 0.0236004 0.00564114 0.0506992 0.0488402 0.0205442 0.0146874 0.0581502 0.00907804 0.0320214 0.0265385 0.104831 0.0220705 0.00302892 0.193564 0.0526532 0.0161576 0.0922256 0.0374961 0.0600503 0.0768581 0.0717417 1.00486 0.0459307 0.0657483 0.0315922 0.0299733 0.011653 0.037455 0.0339242 0.0312343 0.0264257 0.0160848 0.00361659 0.00484836 0.0283899 0.0154165 0.00452639 0.0954081 0.0161012 0.0544545 0.0218534 0.0164388 0.00542591 0.098991 0.0408795 0.0101432 0.0205936 0.0072685 0.0199912 0.0635386 0.0118369 0.00391692 0.0181551 0.0284923 0.0929187 0.0108637 0.00940618 0.0196918 0.0525757 0.0400521 0.0534305 0.204104 1.12101 0.021828 0.0165957 0.00330088 0.0155097 0.0258809 0.0248355 0.0256386 0.0449464 0.0117666 0.0178669 0.0496213 0.00440303 0.023021 0.0268056 0.0146557 0.0402253 0.0225425 0.0126884 0.0264755 0.0290924 0.0317627 0.0405858 0.0214126 0.975434 0.432691 0.992489 0.778262 0.0472561 0.0149442 0.0252468 0.0424419 0.00969685 0.0436262 0.115186 0.0260078 0.0338002 0.0424047 0.0302168 0.0393154 0.106682 0.135349 0.193016 0.00734961 0.00226668 0.0499226 0.0333655 0.0186508 0.231732 0.0733666 0.0646637 0.117092 0.952923 0.298627 0.1981 0.0225978 0.0258256 0.0247094 0.00462295 0.0181305 0.0397196 0.0171721 0.00738493 0.0252345 0.0319067 0.122585 0.109904 0.00539702 0.140122 0.0629219 0.00603185 0.0306389 0.028466 0.0151822 0.151887 0.0382037 0.0107372 0.0492276 0.01064 0.180718 0.00446446 0.00507093 0.0101866 0.0197043 0.0123689 0.0187074 0.0793488 0.026404 0.0600439 0.0126385 0.0365875 0.0493754 0.0156868 0.0187533 0.0183769 0.00707131 0.0318926 0.0352295 0.0426932 0.632833 0.498213 0.423659 0.0317578 0.090958 0.00434925 0.0986519 0.0379945 0.00708906 0.0135843 0.036564 0.017893 0.00106756 0.0253637 0.0374021 0.0400304 0.0209785 0.0493745 0.00881485 0.0283753 0.0294906 0.0334778 0.0109075 0.0285618 0.0275679 0.017969 0.0557352 0.0107553 0.0277996 0.0376549 0.0389228 0.0193488 0.00255508 0.0210039 0.0668372 0.040135 0.0245523 0.0371859 0.0334166 0.0179951 0.0335631 0.00441347 0.0586764 0.061603 0.0806555 0.0268978 0.0472625 0.0290652 0.0200455 0.0212304 0.0208396 0.0183703 0.017746 0.170323 0.0345846 0.025722 0.00501972 0.0190464 0.04269 0.0412386 0.0310962 0.0994215 0.0312338 0.0696717 0.0215456 0.0158097 0.109882 0.030527 0.0608612 0.0332347 0.0228275 0.0366219 0.0810249 0.00556058 0.0398082 0.0818774 0.102066 0.0368426 0.0122272 0.0260941 0.0162344 0.021581 0.00386759 0.0317741 0.018316 0.0281598 0.0183164 0.0370681 0.0495675 0.0337513 1.52884 0.164477 0.1096 0.0474929 0.0157359 0.0235908 0.025535 0.0412205 0.0275649 0.0587537 0.0369709 0.0431994 0.0299442 0.00602219 0.0507863 0.0272208 0.037947 0.238681 0.0288608 0.0362149 0.0727299 0.0532159 0.0316808 0.0301041 0.0333427 0.0604796 0.0272301 0.0376733 0.0384074 0.0166268 0.0254762 0.0361627 0.012719 0.15831 0.0159008 0.00840118 0.00931642 0.0513769 0.00711451 0.0843076 0.164706 0.0852836 0.0124725 0.0822008 0.0467915 0.0998416 0.0352136 0.0370486 0.0512247 0.0259518 0.0112927 0.0084743 0.119315 0.0393467 0.0606799 0.0217786 0.0466835 0.0359339 0.361653 0.0862053 0.11351 0.0351626 0.0545361 0.011049 0.0205601 0.0361042 0.135829 0.178538 0.189899 0.0476283 0.0307985 0.0408902 0.0136584 0.0215371 0.0223857 0.0271139 0.103182 0.0214602 0.0198749 0.0141422 0.0566037 0.0201001 0.0598536 0.0514087 0.0415247 0.0170972 0.0142815 0.091767 0.020358 0.0366689 0.0321165 0.0135221 0.0180369 0.0150465 0.0158391 0.0180057 0.0436772 0.0306643 0.0203978 0.0800283 0.0441903 0.0201287 0.00394536 0.0200777 0.0451405 0.0336359 0.0199209 0.0832915 0.034692 0.0719159 0.0230212 0.0402062 0.0394894 0.0804048 0.0501406 0.0277023 0.0473122 0.00956975 0.0256654 0.075303 0.0688542 0.272539 0.638569 0.027397 0.119451 0.0472084 0.0193422 0.00996206 0.00224064 0.191216 0.0276302 0.195692 0.141412 0.0468576 0.0575277 0.63928 0.00841191 0.0260004 0.0483634 0.0852445 0.0117481 0.0755444 0.210809 0.0652249 0.0465791 0.0399539 0.0249411 0.011646 0.0772197 0.0585426 0.0738198 0.0086592 0.00496117 0.0133491 0.0139962 0.0181333 0.0232651 0.00472092 0.0418263 0.0272445 0.0354722 0.0134335 0.0264535 0.0337493 0.0306911 0.00681048 0.0141725 0.00607436 0.0704982 0.020078 0.0116509 0.0544491 0.0765803 0.0874685 0.0259354 0.0135791 0.0160877 0.0176334 0.0408951 0.00865905 0.0815089 0.0171802 0.0206359 0.117113 0.18066 0.0365443 0.041118 0.0154278 0.00593264 0.0204945 0.294527 0.0344212 0.0366837 0.011281 0.0239335 0.03907 0.0527537 0.0526511 0.0142898 0.0173986 0.0320252 0.12255 0.127822 0.0298577 0.186215 0.0600578 0.01202 0.0613348 0.0554009 0.0602556 0.0288469 0.0813678 0.05544 0.0527788 0.0338881 0.0222036 0.0265915 0.0944571 0.0128017 0.0168251 0.0140958 0.00338391 0.0237635 0.0285373 0.00597784 0.274322 0.179003 0.02167 0.0219461 0.00977046 0.149452 0.243781 0.00317325 0.00277401 0.440305 0.0766728 0.0115437 0.0236006 0.027447 0.0207459 0.0187464 0.0237571 0.0653637 0.0207114 0.036885 0.00636458 0.0171265 0.00342285 0.643514 0.720277 0.851344 0.593444 0.0221799 0.0252776 0.0241747 0.0232497 0.00648285 0.0150509 0.00938287 0.0842995 0.0188742 0.0175138 0.0174686 0.0224536 0.129413 0.0402796 0.0315483 0.0111236 0.00948709 0.017325 0.033837 0.0412286 0.0357784 0.0285973 0.120093 0.011744 0.0101393 0.0193402 0.0143604 0.0200241 0.195171 0.0241026 0.0646327 0.109389 0.109018 0.0339018 0.0103979 0.0368615 0.120176 0.0196519 0.0260527 0.00524183 0.0568369 0.0694028 0.0364126 0.0162728 0.0141394 0.0223156 0.00535044 0.0089952 0.0164972 0.0441645 0.0695836 0.00974778 0.0143065 0.0151073 0.178657 0.0124057 0.726712 0.00706235 0.202514 0.477649 0.0395753 0.112372 0.138342 0.0230853 0.0113633 0.179531 0.0190009 0.018272 0.0420816 0.0226287 0.0550698 0.0167836 0.02421 0.0909243 0.0186845 0.0823047 0.00750304 0.0294159 0.0334459 0.032952 0.013065 0.0334068 0.00950267 0.0329667 0.0228784 0.334082 0.022145 0.0181814 0.0468334 0.852512 0.0067333 0.00614034 0.119321 0.0244128 0.0164936 0.0157847 0.0179901 0.014771 0.172349 0.0290403 0.0234867 0.0244936 0.160201 0.0277501 0.0156985 0.117999 0.171072 0.0548205 0.0244868 0.024058 0.0727403 0.0687698 0.0211914 0.00816138 0.0213514 0.0138905 0.0409572 0.0519803 0.26467 0.046064 0.0114034 0.0232325 0.0786122 0.036288 0.0219226 0.0236167 0.154378 0.0644486 0.0122828 0.0834852 0.0224705 0.039259 0.0219881 0.0711241 0.0613727 0.00682061 0.0354797 0.0548813 0.108525 0.0525322 0.0191244 0.365711 0.119327 0.0210227 0.040051 0.10128 0.296153 0.713506 0.220341 0.0421315 0.0478443 0.0830022 0.106122 0.06429 0.0135717 0.159149 0.103455 0.137565 0.0411649 0.0312391 0.0417703 0.0153341 0.0516306 0.0334537 0.0138501 0.0436351 0.0218606 0.0198515 0.0317982 0.0483458 0.0246008 0.275868 0.0724703 0.020398 0.0837792 0.0257184 0.0140806 0.0482504 0.11961 0.0713082 0.0472033 0.0304117 0.0353626 0.602483 0.0403572 0.0190708 0.368214 0.117414 0.0325504 0.254238 0.0637965 0.0177452 0.264281 0.0449092 0.0417626 0.0792185 0.0379408 0.0369318 0.0285223 0.0356451 0.0462514 0.10546 0.384349 1.36605 0.0969523 0.249505 0.0297794 0.010693 0.0573134 0.0224452 0.0220729 0.383487 0.0104435 0.104869 0.0601873 0.535506 0.0107774 0.0110833 0.0521916 0.0197931 0.0288175 0.0526236 0.0183538 0.00974379 0.073705 0.11879 0.0403787 0.0660972 0.191248 0.276329 0.740902 0.0877841 0.0241423 0.0400091 0.00516696 0.421479 0.800277 0.935653 0.511185 0.00559407 0.0206809 0.140632 0.962135 0.0686935 0.122197 0.0333999 0.0420574 0.0256259 0.174692 0.0607355 0.134782 0.655013 0.546628 0.513518 0.455666 0.411824 0.705591 0.309332 0.899969 0.16708 0.525868 1.45734 0.339073 0.827267 0.385468 0.149524 0.356389 0.657899 0.954376 0.299959 0.965227 1.05372 0.699313 0.366904 0.976958 0.835644 0.650861 0.716836 0.841743 0.950061 1.05977 3.14997 1.95955 1.68847 3.00122 0.613931 0.839165 0.145365 1.58818 0.921546 1.10005 1.06465 0.507065 0.268124 2.61518 1.40155 0.130576 2.33691 1.99833 0.345517 0.180537 1.67904 0.117594 1.83472 2.151 0.220854 0.836492 0.501683 0.46662 2.65832 2.00957 0.328523 0.17383 0.132283 2.69274 0.292526 1.0701 1.78024 2.19019 2.52713 2.35731 2.59246 2.85245 2.09899 0.261319 1.02571 1.32778 2.05225 1.84042 0.0289924 1.68411 0.0132869 1.95927 0.0184153 0.0420691 0.0102296 0.0929479 0.120948 0.201063 0.0142137 0.0510102 0.0108165 2.52271 2.49984 1.46287 1.56753 3.84247 1.41072 0.012409 1.08845 0.265549 0.423498 1.21288 1.36006 0.857455 2.54404 1.71372 2.94359 4.16448 3.07729 2.78697 3.00535 0.973655 1.73296 1.80795 1.82183 2.27365 2.26809 1.62802 1.71983 0.946765 0.0272141 1.82316 0.783688 1.55515 1.271 1.02394 0.0403169 1.59818 1.45213 2.30904 0.0179194 0.995448 1.04559 1.07187 1.9964 0.220432 1.17873 1.35655 0.614293 1.60243 1.67616 1.02635 1.36489 2.44779 0.788691 0.0352772 3.84997 2.28856 2.19559 0.0235088 4.38736 1.40921 0.113289 0.697975 2.36634 0.01744 1.39288 0.02752 1.3347 0.0103889 0.830852 0.48669 0.0103823 0.00922058 2.60381 1.22914 3.64907 3.07802 1.76286 1.43811 1.55715 0.00732291 0.00544968 0.595532 0.00816763 1.03461 0.28898 0.901479 0.464593 1.47893 1.34885 0.912226 1.33722 1.74177 1.33959 1.58871 0.354098 0.412534 2.8749 1.68737 0.0306508 2.283 1.38642 0.0150348 0.0164531 0.537295 0.00668113 0.0167293 1.20902 3.40542 0.0764645 0.700388 0.0913304 0.0447931 0.851075 0.0886515 0.622001 1.63231 1.04769 0.025319 0.57844 0.905848 1.17349 0.858431 0.956104 0.0435172 0.757094 1.30388 1.15141 0.0224896 0.0134809 0.020441 0.629256 0.859427 2.23898 0.019958 1.23824 0.0458308 0.804286 1.29513 0.556708 1.02188 0.344654 0.503354 1.61761 0.52113 0.721766 0.317403 0.124689 0.795868 0.395474 0.969702 0.569663 0.880153 0.0131439 0.27173 0.260853 0.0646025 0.0383362 0.0928654 0.480592 1.37087 2.42507 0.0353549 0.0178794 0.0216505 0.0269096 1.31862 0.0408453 0.0102385 0.0355341 0.0139444 0.0360593 0.51019 0.0235049 0.0152453 0.0235811 0.0111855 0.0188882 0.0126524 0.0164025 0.0360152 0.104907 0.020147 1.16303 0.016392 1.44974 1.90674 1.10217 1.43903 0.0157839 0.786557 0.0437398 0.052596 0.0990431 0.715039 0.474741 0.0189734 1.46215 0.69009 1.07188 0.660482 0.0204224 0.327188 0.0214675 0.0156163 0.0154072 0.0251155 2.11114 0.0202335 2.52795 0.689302 0.0374269 0.0228221 0.016762 1.23337 1.12384 1.99681 0.0212059 0.0180442 0.0249881 1.9638 0.0254087 1.37741 1.33018 1.12714 1.63654 1.41205 0.868937 1.12181 1.39282 1.44215 0.235608 1.36153 1.68473 1.3889 1.65404 1.99724 0.570283 0.61882 1.97138 0.0244246 0.220074 0.644922 2.13918 1.18781 0.912441 0.599882 0.020952 0.786119 1.48673 0.0427492 1.54339 0.0114916 1.31428 1.54863 0.924455 1.7577 1.59404 1.17942 1.79579 1.04903 1.72078 0.842624 1.18817 1.05256 1.64919 1.07417 1.38006 0.849006 1.79817 1.24548 1.11585 0.79299 2.02725 0.868751 0.68797 0.969049 1.153 1.24828 2.36702 1.30662 1.59263 0.836652 1.49537 1.76175 1.67172 0.232486 0.405061 0.442951 0.00627168 0.0037185 0.00337832 0.00406963 0.239696 0.00404524 0.795537 0.00187377 0.00183176 1.23541 0.00491339 0.804986 0.00895579 0.00318752 0.314162 1.04022 0.128304 0.326743 0.00781517 0.597988 0.73258 1.21065 0.00243566 0.49401 0.226046 1.88059 0.29868 1.24671 0.273116 0.0081482 0.0367433 0.0744217 0.222814 0.0678684 0.614673 0.284462 0.130222 0.00675939 0.00644259 0.0109245 0.133571 0.0615002 0.162564 0.192225 0.000630823 0.407901 0.156544 0.20128 0.171042 0.2241 0.0125287 0.461174 0.0171044 0.00839701 0.176625 2.40126 0.149596 0.170447 0.123253 0.134537 0.25491 0.188205 1.71707 0.00111456 0.0340798 0.197689 0.184302 0.0674307 1.02866 1.39115 2.46374 0.332437 0.107027 0.00902966 1.62523 0.000461354 0.31892 0.010029 1.10864 0.00153356 0.00136481 0.248113 0.00181843 0.0996134 0.261405 0.0212495 0.15285 0.268547 0.00164875 0.298696 0.000406453 0.254839 0.765224 0.00124288 0.0330629 0.103633 0.0341796 0.00167884 0.466349 0.293374 0.661298 0.0232017 0.192395 0.15229 0.204926 0.0470135 0.0236158 0.230067 0.0153269 0.53571 0.86309 0.0605211 0.0197087 0.0216952 0.0395562 0.0344812 0.6945 0.0619838 0.28945 0.163413 0.0999938 0.0228215 0.0497777 0.689413 0.00785732 0.293662 0.590358 0.030922 0.7032 0.251024 0.0464598 0.0625304 0.153192 0.310551 0.0421784 1.56159 0.451542 0.38572 0.0196742 2.20801 0.0828897 0.00210969 0.000310914 0.00639263 0.078476 0.100681 0.0800142 0.00160025 0.627967 1.32143 0.000343899 0.0597865 0.20179 0.020504 1.68128 0.236428 0.897761 0.232883 0.0926587 0.12037 1.23925 0.0318421 0.0295474 0.181744 0.227956 0.224952 0.649222 0.0152371 0.25037 1.4964 0.24477 0.00386754 0.00800643 1.82479 0.00702306 0.0241286 0.00660069 1.07234 0.482493 1.41321 0.156258 0.309185 0.0261387 0.98986 0.866179 0.0568057 0.181485 0.0408693 0.0732458 0.147913 0.194448 0.139148 0.00458934 0.390305 0.646213 0.0922235 0.036558 0.0102384 0.0308776 0.0189859 0.468019 0.0208995 0.0575601 0.0194205 0.0343316 0.0159737 0.101649 0.804154 0.193837 0.658813 0.0209644 0.0217091 0.226106 0.0258141 0.392592 0.0432565 0.00134364 0.217542 0.706733 0.130821 0.0299304 0.000301714 0.673571 0.227097 0.529474 0.154207 0.0853658 0.0158728 0.0739474 0.404459 0.938491 0.047142 0.0441512 0.317973 0.0554954 0.08806 0.530241 1.32163 0.781612 0.102213 0.24039 0.0800411 0.475342 0.0162122 1.22797 0.0211556 0.288871 1.00454 0.00542962 0.0800505 0.788195 0.548768 0.414079 0.210505 0.000181305 0.100817 0.436118 0.2