# vtk DataFile Version 5.1
vtk output
ASCII

DATASET UNSTRUCTURED_GRID
POINTS 5212 float
-0.4801 -0.1 0.07
-0.4801 0.2001 0.07
-0.4656 -0.1 0.2163
-0.4656 0.2001 0.2163
-0.46264 -0.0986152 -0.0860761
-0.4656 0.2001 -0.0763
-0.423 -0.1 0.357
-0.423 0.2001 0.357
-0.423 -0.1 -0.217
-0.423 0.2001 -0.217
-0.3536 -0.1 0.4867
-0.3536 0.2001 0.4867
-0.3536 -0.1 -0.3467
-0.3536 0.2001 -0.3467
-0.2604 -0.1 0.6004
-0.2604 0.2001 0.6004
-0.266095 -0.1 -0.453452
-0.2604 0.2001 -0.4604
-0.183027 0.2001 -0.142714
-0.1744 2.2301 0.5994
-0.167087 0.2001 -0.256813
-0.155488 2.23929 0.529696
-0.154028 2.2229 0.667685
-0.1547 0.2205 -0.31
-0.152608 2.23314 0.599629
-0.1467 -0.1 0.6936
-0.1467 0.2001 0.6936
-0.1467 -0.1 -0.5536
-0.1467 0.2001 -0.5536
-0.140594 0.2001 0.0181701
-0.1384 2.5483 0.6375
-0.1376 2.23827 0.575117
-0.136691 2.23236 0.623839
-0.12932 2.54288 0.623138
-0.128587 2.53771 0.649803
-0.128998 2.58788 0.642157
-0.123556 2.57182 0.627767
-0.123239 2.56843 0.652037
-0.106123 2.53683 0.658443
-0.110355 2.54827 0.615453
-0.1072 2.2544 0.479
-0.0967212 2.47955 0.655986
-0.10398 2.22454 0.718183
-0.102007 2.23543 0.638334
-0.104303 2.24469 0.561024
-0.0990997 2.3908 0.615342
-0.101233 2.52403 0.635554
-0.0982813 2.11919 0.584663
-0.0991819 2.52316 0.608724
-0.097012 2.33503 0.611824
-0.0944628 2.40387 0.586057
-0.0959225 2.39188 0.650825
-0.0936985 2.51438 0.658381
-0.0884635 2.30332 0.566667
-0.0903224 2.31385 0.646735
-0.0884818 2.12677 0.545022
-0.0873938 2.44501 0.622381
-0.0868104 2.1146 0.624212
-0.226753 0.2001 0.349145
-0.0836273 2.44873 0.592793
-0.0847912 2.43799 0.654731
-0.0787363 2.51105 0.659725
-0.0763 1.9631 0.5653
-0.0750599 2.25806 0.556423
-0.074459 0.871561 0.06469
-0.0752682 2.24385 0.600963
-0.0736901 2.45613 0.592767
-0.0749448 2.51773 0.604323
-0.0780595 2.26513 0.645087
0.04874 0.68348 -0.0937837
-0.0716 2.5048 0.6311
0.530591 -0.1 0.469584
-0.0698102 2.25038 0.554263
-0.0689923 2.23955 0.644438
-0.0664 1.9694 0.5255
-0.012538 0.0126213 -0.456962
-0.0652965 2.46542 0.626553
-0.0659009 2.45039 0.657393
-0.0647253 2.5126 0.659515
-0.065 1.9598 0.605
-0.0596058 2.45877 0.59254
-0.0596671 2.13186 0.51567
-0.0576633 2.11777 0.653636
-0.0556668 2.52695 0.607608
-0.0538 0.2699 -0.4388
-0.0514109 2.52536 0.658347
-0.0489744 2.52953 0.634589
-0.0474566 0.842178 0.175146
-0.0472 0.9252 -0.0498
-0.0462893 2.55783 0.615651
-0.0465145 1.96737 0.564851
-0.0447071 2.55625 0.657389
-0.0412893 2.45086 0.593913
-0.0435396 2.4466 0.655149
-0.0401152 1.97131 0.540151
-0.0398243 2.58734 0.630297
-0.0385438 2.58007 0.651656
-0.0396752 1.96524 0.58995
-0.0393873 2.60035 0.642143
-0.0378298 2.449 0.621155
-0.0365532 2.26666 0.460813
-0.0379 1.9771 0.4965
-0.03775 0.2001 0.152479
-0.0347424 2.24902 0.605287
-0.0355 1.9603 0.6341
-0.479822 0.0587755 0.0671965
-0.0324186 2.23287 0.738135
-0.0277 2.5654 0.6251
-0.0264655 2.55208 0.650023
-0.0301731 2.48193 0.600017
-0.0223711 0.2001 0.161726
-0.0210259 1.97633 0.521834
-0.0214241 1.96555 0.607965
-0.0205552 2.14134 0.505334
-0.019723 2.5654 0.637552
-0.0178618 2.12197 0.664222
-0.017 -0.1 0.763
-0.017 0.2001 0.763
-0.017 -0.1 -0.623
-0.017 0.2001 -0.623
-0.0157474 2.39378 0.650397
-0.0153681 0.2001 0.115157
-0.0134654 2.40198 0.618045
-0.011791 1.37558 0.179549
-0.00263975 2.26002 0.554432
-0.002044 2.32593 0.568696
-0.25939 0.0444697 0.601228
-0.00104908 2.24906 0.643092
-0.000503238 2.32619 0.646668
-0.000854007 2.28605 0.560164
0.000860663 2.27744 0.645094
-0.00219126 1.98436 0.48692
0.0046008 1.98075 0.514856
0.00357468 2.25503 0.599992
0.00301951 2.32883 0.605954
0.00377721 1.96823 0.614958
0.00837816 1.96531 0.643603
0.00459883 2.28941 0.600071
0.0092 1.7515 0.4509
0.0132064 1.48011 0.281474
0.0104 1.5131 0.1356
0.0104 1.268 0.0769
0.0174143 0.709357 0.254994
0.019242 2.1456 0.515953
0.019107 1.54503 0.489087
0.0215991 2.12891 0.653637
0.0236902 1.82081 0.496103
0.0257478 2.2531 0.640796
0.0325123 2.26388 0.561452
0.0269205 1.98298 0.522287
0.0252926 0.806313 0.270711
0.149825 0.2001 0.528431
0.026449 1.97221 0.608786
0.0314757 0.980515 -0.137835
0.0295 1.648 0.3834
0.0301125 1.09153 0.454629
0.0301274 1.27985 0.0883251
0.0312827 1.07089 0.468504
0.0321009 2.27194 0.480346
0.0315 1.6093 0.2284
0.0315 1.4168 0.0428
0.0325944 1.06648 0.447854
0.0360802 1.07945 0.424931
0.0345448 1.08774 0.480941
0.0337417 1.51239 0.543436
0.0355299 1.10774 0.466254
0.0350799 1.09869 0.428739
0.0371881 2.24512 0.71818
0.0341481 1.8539 0.503545
0.0338899 1.23724 0.0461043
0.70114 0.2001 0.269128
0.0348063 1.10974 0.443722
0.0390106 1.05069 0.468213
-0.00054754 0.718464 -0.249372
0.0358697 1.06622 0.481254
0.0417222 1.10264 0.485132
0.0423083 1.12354 0.453292
0.0398434 1.3547 0.160575
0.0422338 1.98821 0.49732
0.0437959 1.05888 0.422363
0.0413014 1.04812 0.446478
0.0414283 1.38319 0.224951
0.141293 0.760493 -0.156748
0.0434529 1.87088 0.509146
0.0437 1.9715 0.6341
0.0447368 1.12578 0.331612
0.0503148 0.88111 0.173787
0.0473722 1.07498 0.404369
0.0450254 1.14426 0.286194
0.0450553 1.05304 0.48627
0.0467334 1.09821 0.39991
0.0455026 1.98326 0.540868
0.0456237 1.11193 0.318697
0.0458962 1.08742 0.495641
0.0461986 1.97729 0.590114
0.0445551 1.40277 0.206948
0.0444218 1.07032 0.494932
0.0475128 1.14556 0.335007
0.0447191 1.12037 0.418414
0.048489 1.11641 0.36359
0.048079 1.83226 0.503571
0.0499873 1.1088 0.293367
0.0486988 2.13612 0.625984
0.0488118 2.14617 0.54506
0.0503314 1.09905 0.359711
0.0456972 1.11624 0.477535
0.0538506 1.04306 0.427103
0.0485238 1.04134 0.471405
0.0508047 1.03778 0.451306
0.0512547 1.17196 0.295366
0.0521391 0.2001 -0.0147037
0.0523282 1.9812 0.565477
0.0559465 1.10273 0.494492
0.0540315 1.09101 0.327144
0.0572317 1.05997 0.401168
0.0556263 1.09984 0.383936
0.0538768 1.13582 0.367584
0.057734 1.1645 0.339218
0.0601756 1.1395 0.445406
0.0585369 1.43514 0.238145
0.0582583 1.03425 0.462374
0.0579271 1.04045 0.480662
0.0536392 1.12963 0.465511
0.0583848 1.08246 0.358736
0.0569664 1.05623 0.495618
0.0580856 1.89476 0.530426
0.0538635 1.0527 0.299853
0.0533422 1.13551 0.425379
0.0592812 1.08334 0.501222
0.0595366 1.08728 0.306045
0.0576449 1.11958 0.38544
0.0670451 1.06934 0.500155
0.0600999 2.14288 0.58482
0.0571871 1.35212 0.295063
0.061783 1.86874 0.527346
0.063235 1.03288 0.442717
0.0618076 1.90425 0.550483
0.0615359 1.18548 0.309356
0.0596949 1.08121 0.383194
0.0597683 1.12223 0.480672
0.0648475 2.26674 0.574782
0.0676343 1.11208 0.489877
0.0730893 1.0448 0.484367
0.0706765 1.03565 0.471262
0.0660417 0.442149 0.0234411
0.0661148 2.26087 0.623647
0.0681759 1.07171 0.345799
0.0693983 1.09763 0.247925
0.068581 1.14631 0.41939
0.0711728 1.07345 0.315739
0.0718856 1.03799 0.421052
0.0772487 1.06062 0.493491
0.0709 1.9887 0.5255
0.0707399 1.13537 0.463727
0.0690813 1.1436 0.384172
0.0728583 1.03198 0.456482
0.0719833 1.58324 0.341212
0.0723 1.9791 0.605
0.0748378 1.17251 0.356775
-0.28882 0.2001 0.198198
0.0728753 1.05341 0.394856
0.0709997 1.09596 0.497016
0.0800779 1.56744 0.365636
0.0767181 1.62821 0.0956612
0.0813711 1.07744 0.27397
0.0774219 1.14636 0.435146
0.076221 1.19565 0.32046
0.078142 1.07982 0.496673
0.0690971 1.25043 -0.00220287
0.0765951 0.443318 0.0112496
0.34973 0.0218059 -0.500793
0.0762172 1.12473 0.477304
0.0762043 1.03265 0.439457
0.0782641 1.1133 0.203306
0.0739191 1.06972 0.37574
0.0867778 1.60395 0.354726
0.0811098 2.26597 0.599229
0.090807 1.24072 -0.0262562
0.0822 1.9854 0.5653
0.0828685 0.988099 0.149391
0.081683 2.27385 0.528796
0.0837555 1.10922 0.486938
0.084793 0.935608 0.160236
0.087411 0.988733 0.179337
0.0851329 1.03399 0.451699
0.0848759 2.25586 0.668117
0.213891 0.0961839 -0.550982
0.0880114 1.06589 0.305268
0.0833199 0.949886 0.13478
0.0893554 1.15184 0.390151
0.0848954 1.03961 0.163998
0.874821 0.107505 -0.0315269
0.0886266 1.06176 0.341676
0.0871 1.9428 0.5756
0.0914585 1.05049 0.397464
0.0869228 1.23005 0.259561
0.0859219 1.0406 0.466859
0.0891719 1.0688 0.222013
0.0897181 1.09059 0.225169
0.0885854 1.05383 0.480063
0.0848681 1.24469 0.33361
0.109071 0.2001 0.676156
0.0908639 0.923897 0.185517
0.0950295 0.8159 0.164397
0.0896749 1.70218 0.171373
0.0911851 1.5657 0.034803
0.0901752 1.32994 -0.0336731
0.0919459 1.06991 0.484655
0.0919924 1.68976 0.308004
0.0925205 1.06326 0.374073
0.100884 1.2082 0.323948
0.0910485 0.855542 0.13871
0.0942834 0.930224 0.111006
0.0900966 1.07782 0.167694
0.0937011 1.03817 0.191802
0.0927027 1.14998 0.420682
0.33905 0.894788 -0.148489
0.0925354 1.17065 0.371073
0.0967487 0.84315 0.185424
0.0971155 1.11598 0.167858
0.10615 1.06434 0.496642
0.0971483 0.999477 0.200977
0.097 0.303 -0.5249
0.0980633 1.25174 0.214841
0.099977 0.866625 0.073235
0.0984385 1.0688 0.197949
0.267116 0.2001 0.536955
0.102706 0.43085 0.127273
0.0994519 1.09861 0.192247
0.798114 0.2001 0.180865
0.102333 1.3576 0.349121
0.10541 0.750646 0.168884
0.102312 2.26863 0.60175
0.10805 1.06091 0.308613
0.100754 0.774026 0.147023
0.110448 1.23573 0.278154
0.1071 1.14921 0.39419
0.105673 1.16475 0.41762
0.10414 0.898321 0.207289
0.105652 0.842456 0.105573
0.121221 1.62657 0.370516
0.103297 1.06904 0.269248
0.107789 1.05694 0.406869
0.108082 1.06539 0.378606
0.108428 1.05967 0.351817
0.108218 1.51821 0.318183
0.106765 0.781106 0.189894
0.109772 0.758615 0.121812
0.108955 0.841588 0.207852
0.109081 1.43793 0.314104
0.110263 1.49428 0.333477
-0.342093 0.0681984 0.0595948
0.704006 0.2001 0.474223
0.115805 1.49289 0.354719
0.11397 1.54491 0.343908
0.0586076 0.048703 -0.295349
0.411816 0.0839426 -0.311462
0.10847 1.14192 0.414905
0.115012 1.52769 0.359125
0.114178 1.80395 0.485117
0.560023 0.2001 0.437941
0.118003 1.45155 0.34615
0.112162 1.24893 0.248789
0.117062 1.13502 0.400215
0.122603 1.01475 0.228672
0.117232 0.694311 0.164053
0.118817 1.07395 0.387844
0.122371 0.75905 0.207833
0.119547 0.492228 0.0437485
0.121687 0.686665 0.137745
0.126639 1.15647 0.383245
0.114579 1.17571 0.370066
0.119896 1.43594 0.238913
0.119238 1.27519 0.182387
0.125829 1.20837 0.329518
0.118388 1.35855 0.289806
0.121705 0.524773 0.0886039
0.121135 0.550898 0.0591049
[...]
POINT_DATA 5212
SCALARS weights float 1
LOOKUP_TABLE default
1.01443 0.725589 0.540522 1.15907 0.785776 1.04466 0.45886 1.02374 0.909829 0.948818 0.500033 0.489126 0.963003 0.725999 0.574101 1.108 0.515294 0.367643 1.8598 0.00924625 0.868871 0.0260866 0.0219615 0.142203 0.00471428 1.0317 0.503746 0.997256 0.688708 1.63535 0.00144917 0.0482733 0.0451497 0.00619818 0.00551738 0.000399819 0.00126534 0.00323643 0.00210816 0.00342576 0.0231281 0.00995341 0.0507205 0.0747963 0.0641849 0.0308505 0.0131517 0.135084 0.00365654 0.0397966 0.00623453 0.0122286 0.00285688 0.0261512 0.0153915 0.0509296 0.0102206 0.0501297 1.16358 0.00240867 0.00777378 0.00134409 0.0145068 0.00349643 0.520115 0.0397224 0.000405139 0.00568767 0.00463428 1.58957 0.00908975 1.41669 0.0333858 0.128804 0.00950287 3.20674 0.00631101 0.00478099 0.0066915 0.01302 0.00248792 0.0871031 0.0859136 0.00450568 0.551993 0.00517462 0.020697 0.163818 0.78468 0.0031063 0.0169182 0.00110603 0.00356162 0.00761716 0.0226009 0.000992729 0.00393776 0.0230165 0.000293491 0.0146647 0.0240955 0.00954271 0.166051 0.0279118 0.0115158 0.48943 0.0467372 0.00596401 0.00564071 0.0119192 0.0464649 0.0298203 0.0192708 0.0673002 0.0053948 0.0655033 0.926495 0.618757 0.764955 0.88993 0.00795458 0.432221 0.0353914 0.0546133 0.0542852 0.0164301 0.41387 0.113481 0.0190254 0.00352123 0.00518812 0.00784158 0.0452707 0.0499739 0.0382744 0.0228528 0.019344 0.0276123 0.0158758 0.0381346 0.351177 0.00847145 0.0300882 0.0534251 0.0105229 0.0453052 0.0335915 0.0701214 0.0881291 0.0124977 0.0372403 1.20933 0.0283944 0.353738 0.00966367 0.00574195 0.093829 0.00314868 0.0444639 0.247557 0.473612 0.00560827 0.00435081 0.00422311 0.0229528 0.00204287 0.00764218 0.0437546 0.0195441 0.0394943 0.413641 0.00215508 0.00152375 1.25424 0.00183493 0.00229172 0.0028657 0.124737 0.0231157 0.00716813 0.0033317 0.0441939 2.5212 0.0157085 0.00986249 0.0171671 0.0711501 0.00371876 0.072495 0.00128713 0.010876 0.0236148 0.00834562 0.00093498 0.0229625 0.0339728 0.00106829 0.0085136 0.00974659 0.00714713 0.0369891 0.0267705 0.104898 0.0928024 0.00473161 0.00168801 0.00457411 0.00103381 0.00229236 0.0154803 0.479825 0.0186619 0.00249304 0.0110069 0.00277254 0.0082919 0.00614341 0.0125703 0.003615 0.0686102 0.00116697 0.00117096 0.0015616 0.00364422 0.00217427 0.038515 0.0214008 0.00846335 0.000922053 0.00950649 0.00864418 0.00110671 0.0991611 0.0589229 0.0377185 0.00168155 0.0194622 0.00446472 0.0065317 0.00175043 0.0331584 0.00213502 0.00223783 0.0012407 0.0365117 0.0406697 0.00852836 0.10297 0.00449833 0.00932474 0.00434366 0.00146636 0.0156795 0.0103252 0.023795 0.000612413 0.0314155 0.0133468 0.00714226 1.21384 0.00382948 0.0018491 0.0110748 0.541251 0.0164172 0.0168371 0.00680792 0.00145953 0.0452152 0.0214962 4.10497 0.00434716 0.00146469 0.121684 0.00882753 0.0232012 0.0208153 0.02937 0.0106596 0.0646084 0.0186926 0.0086953 0.0170243 0.0509252 0.00719057 0.0296257 2.45848 0.00879595 0.0821342 0.00764385 0.113152 1.8466 0.00624396 0.0242752 0.00397374 0.0639466 0.00476005 0.00266681 0.0433788 0.00556021 0.00135176 0.356868 0.04571 0.0231899 0.182951 0.586979 0.0423526 0.00724276 0.101655 0.00283221 0.0121694 0.0172287 0.0551848 0.0720682 0.00882304 0.00702945 1.94986 0.00847156 0.0255272 0.0689616 0.00897981 0.042969 0.656171 0.0795364 0.0603487 0.00853675 0.408526 0.0292572 0.0557593 1.16952 0.0104229 0.0188373 0.0119961 0.011887 0.0163526 0.0147565 0.00655321 0.00451882 0.0652863 0.020452 0.0533039 0.0171964 0.0105394 0.00382924 0.00817975 0.0297092 0.0247421 0.022936 0.0486831 0.0156719 0.00841901 4.24986 1.19432 0.00839639 0.0237035 3.0289 2.19299 0.0035211 0.00957666 0.0632892 0.752508 0.0042266 0.00885886 0.00394394 0.0343397 0.0115762 0.00370974 0.0523189 0.0313341 0.0159802 0.00895619 0.0115903 0.0490843 0.0536894 0.0188279 0.0143876 0.0258268 0.0250194 0.00711531 0.00816438 0.0192423 0.0316358 0.0130315 0.0341298 0.0118553 0.0458117 0.0326239 0.0417833 0.785669 0.756173 0.54985 0.815056 0.0177194 0.0161849 0.0251748 0.0168041 0.0242822 0.00460836 0.0108145 0.00798125 0.00359498 0.123487 0.118208 0.0417246 0.0587182 0.0211819 0.0184813 0.00503713 0.0170846 0.0241606 0.0605514 0.00284609 0.0393498 0.311029 0.0200713 0.0261472 0.0800195 0.0399956 0.0468294 0.0356981 0.0154264 0.0679858 0.0305507 0.0231573 0.0343488 0.00664801 0.0299566 0.0232978 0.00257622 0.209754 0.0233309 0.0554051 0.0159697 0.0870926 0.00551462 0.0217332 0.0155896 0.0360925 0.031632 0.372355 0.0117687 0.0206613 0.00523802 0.12498 0.0101239 0.0206709 0.0231765 0.0181137 0.0173792 0.0384352 1.03062 0.0509018 0.743647 0.00271389 0.0628353 0.0637298 0.0206102 0.247384 0.00402519 0.00691535 0.0269633 0.0302549 0.0225208 0.0173484 0.0228956 0.0192144 0.0290739 0.00581915 0.026899 0.0870252 0.00699649 0.0210711 0.00729856 0.0400527 0.0174207 0.0367914 0.0722816 0.0419031 0.0138055 0.0146738 0.0109291 0.0413595 0.0374351 0.0541018 0.00698407 0.0062723 0.137655 0.0534486 0.0864707 0.0378156 0.0585252 0.0791042 0.0110075 0.0326545 0.0340796 0.05187 0.0110587 0.0214562 0.0423351 0.00997848 0.0171702 0.0763957 0.0460441 0.0127279 0.0704028 0.0483637 0.0542762 0.0124216 0.0575401 0.0235801 0.0678713 0.0273177 0.029074 0.243222 0.023052 0.0276751 0.0625618 0.00545317 0.0243081 0.00894255 0.00787856 0.00980539 0.0152181 0.0499167 0.0175636 0.0295827 0.0126735 0.0150848 0.0147528 0.0346152 0.0123243 0.034603 0.0284856 0.0395197 0.0121701 0.021678 0.0217466 0.150112 0.0306752 0.0559003 0.0120997 0.00899528 0.0153745 0.048243 0.0351905 0.0357245 0.0588496 0.0214049 0.0135759 0.112955 0.0403814 0.0100021 0.0327695 0.0679491 0.0579952 0.0596959 0.0229111 0.0538469 0.0393645 0.151066 0.0512041 0.0774689 0.0197778 0.148573 0.146808 0.143233 0.015021 0.0108157 0.0221886 0.0093777 0.0246649 0.0535016 0.0617249 0.0208468 0.0173413 0.00588257 0.00945714 0.0588138 0.0165281 0.025233 0.050577 0.00666327 0.010153 0.00531395 0.0586921 0.0169362 0.0694093 0.0185057 0.0426562 0.0396081 0.0122712 0.0117983 0.0158094 0.013789 0.0337131 0.00698568 0.0276392 0.0023405 0.01008 0.0198112 0.0185771 0.0304905 0.0129425 0.033886 0.0451508 0.0848768 0.0147443 0.0178973 0.0367927 0.0289846 0.0103192 0.0530279 0.0242405 0.0217576 0.0299974 0.0258947 0.0538691 0.00962269 0.0237681 0.294132 0.44157 0.0187618 0.0247237 0.0228322 0.00582791 0.0245142 0.00843764 0.0212038 0.00480915 0.125087 0.0132466 0.0455195 0.0575287 0.00698976 0.0668193 0.0687878 0.0376114 0.0825825 0.0121522 0.0346349 0.0140428 0.196315 0.00829101 0.599532 0.106744 0.00667339 0.0320627 0.0129879 0.0357159 0.0150492 0.0832825 0.013554 0.0105157 0.0224473 0.0328561 0.0128762 0.0939604 0.0431446 0.155157 0.00487797 0.0108367 0.0937076 0.0325904 0.0338044 0.0189052 0.00735972 0.0102288 0.048147 0.0459368 0.0145587 0.0503996 0.0136851 0.0461691 0.0182692 0.0184048 0.0353458 0.0157364 0.021312 0.0493034 0.0937737 0.0048 0.0313837 0.00696743 0.0075258 0.0214618 0.0236004 0.00564113 0.0506993 0.0488402 0.0205442 0.0146874 0.0581503 0.00907804 0.0320214 0.0265385 0.104831 0.0220705 0.00302892 0.193564 0.0526532 0.0161576 0.0922255 0.0374961 0.0600503 0.0768581 0.0717418 1.00486 0.0459307 0.0657483 0.0315922 0.0299732 0.011653 0.037455 0.0339242 0.0312343 0.0264257 0.0160849 0.00361659 0.00484836 0.0283899 0.0154165 0.00452639 0.0954081 0.0161012 0.0544545 0.0218534 0.0164389 0.00542591 0.098991 0.0408796 0.0101432 0.0205936 0.0072685 0.0199912 0.0635386 0.0118369 0.00391692 0.0181551 0.0284923 0.0929188 0.0108637 0.00940618 0.0196918 0.0525757 0.0400521 0.0534306 0.204104 1.12101 0.0218281 0.0165957 0.00330088 0.0155097 0.0258808 0.0248355 0.0256386 0.0449464 0.0117666 0.0178669 0.0496213 0.00440304 0.023021 0.0268056 0.0146557 0.0402253 0.0225425 0.0126884 0.0264755 0.0290924 0.0317626 0.0405858 0.0214126 0.975434 0.432691 0.992489 0.778263 0.0472561 0.0149443 0.0252468 0.0424419 0.00969683 0.0436262 0.115186 0.0260078 0.0338002 0.0424047 0.0302168 0.0393155 0.106682 0.135349 0.193016 0.00734961 0.00226669 0.0499226 0.0333655 0.0186508 0.231732 0.0733666 0.0646638 0.117092 0.952923 0.298627 0.1981 0.0225978 0.0258255 0.0247094 0.00462296 0.0181305 0.0397196 0.0171721 0.00738491 0.0252345 0.0319066 0.122584 0.109904 0.00539703 0.140122 0.062922 0.00603186 0.0306389 0.028466 0.0151822 0.151887 0.0382037 0.0107372 0.0492276 0.01064 0.180718 0.00446447 0.00507093 0.0101866 0.0197043 0.0123689 0.0187074 0.0793488 0.026404 0.0600439 0.0126385 0.0365875 0.0493755 0.0156868 0.0187533 0.0183769 0.00707131 0.0318925 0.0352295 0.0426932 0.632833 0.498213 0.423658 0.0317578 0.090958 0.00434925 0.0986519 0.0379945 0.00708908 0.0135843 0.036564 0.017893 0.00106757 0.0253636 0.0374021 0.0400305 0.0209785 0.0493745 0.00881484 0.0283753 0.0294906 0.0334777 0.0109075 0.0285618 0.0275678 0.017969 0.0557352 0.0107553 0.0277996 0.0376549 0.0389228 0.0193488 0.00255509 0.0210039 0.0668372 0.040135 0.0245523 0.0371859 0.0334167 0.0179951 0.0335632 0.00441347 0.0586764 0.061603 0.0806554 0.0268978 0.0472625 0.0290652 0.0200455 0.0212304 0.0208396 0.0183703 0.0177459 0.170323 0.0345846 0.025722 0.00501973 0.0190463 0.04269 0.0412386 0.0310963 0.0994215 0.0312338 0.0696716 0.0215456 0.0158097 0.109882 0.030527 0.0608613 0.0332347 0.0228274 0.0366219 0.0810248 0.00556056 0.0398082 0.0818774 0.102066 0.0368426 0.0122272 0.0260941 0.0162344 0.021581 0.00386759 0.0317741 0.018316 0.0281599 0.0183164 0.0370681 0.0495676 0.0337512 1.52884 0.164477 0.1096 0.0474929 0.0157359 0.0235907 0.025535 0.0412205 0.0275649 0.0587538 0.0369709 0.0431994 0.0299442 0.00602217 0.0507864 0.0272208 0.037947 0.238681 0.0288608 0.036215 0.0727299 0.0532159 0.0316809 0.0301041 0.0333428 0.0604797 0.0272301 0.0376733 0.0384073 0.0166268 0.0254762 0.0361627 0.012719 0.15831 0.0159008 0.00840118 0.00931641 0.0513769 0.00711451 0.0843076 0.164706 0.0852837 0.0124724 0.0822008 0.0467915 0.0998417 0.0352136 0.0370487 0.0512247 0.0259518 0.0112927 0.0084743 0.119315 0.0393467 0.06068 0.0217786 0.0466834 0.0359338 0.361653 0.0862054 0.11351 0.0351625 0.054536 0.011049 0.0205601 0.0361042 0.135829 0.178538 0.189899 0.0476283 0.0307985 0.0408902 0.0136583 0.0215372 0.0223856 0.0271139 0.103181 0.0214603 0.0198749 0.0141422 0.0566037 0.0201001 0.0598536 0.0514088 0.0415247 0.0170972 0.0142815 0.091767 0.020358 0.0366688 0.0321165 0.0135221 0.0180368 0.0150465 0.0158391 0.0180057 0.0436773 0.0306643 0.0203979 0.0800282 0.0441904 0.0201287 0.00394535 0.0200777 0.0451406 0.0336359 0.0199209 0.0832915 0.034692 0.071916 0.0230213 0.0402062 0.0394894 0.0804049 0.0501406 0.0277023 0.0473122 0.00956974 0.0256654 0.075303 0.0688543 0.272538 0.638568 0.0273971 0.119451 0.0472084 0.0193422 0.00996205 0.00224062 0.191216 0.0276301 0.195692 0.141412 0.0468576 0.0575277 0.63928 0.00841191 0.0260003 0.0483634 0.0852445 0.0117481 0.0755444 0.210809 0.065225 0.0465791 0.0399539 0.0249411 0.011646 0.0772196 0.0585426 0.0738199 0.00865916 0.00496117 0.013349 0.0139962 0.0181334 0.0232651 0.00472093 0.0418263 0.0272444 0.0354722 0.0134336 0.0264535 0.0337493 0.0306911 0.00681048 0.0141725 0.00607439 0.0704982 0.020078 0.0116509 0.0544491 0.0765802 0.0874684 0.0259354 0.0135791 0.0160876 0.0176334 0.0408951 0.00865906 0.0815089 0.0171802 0.0206359 0.117113 0.18066 0.0365443 0.041118 0.0154278 0.00593266 0.0204946 0.294527 0.0344211 0.0366838 0.011281 0.0239335 0.03907 0.0527537 0.0526512 0.0142898 0.0173986 0.0320252 0.12255 0.127822 0.0298577 0.186215 0.0600578 0.01202 0.0613348 0.0554008 0.0602556 0.0288468 0.0813678 0.0554401 0.0527788 0.0338881 0.0222036 0.0265915 0.0944571 0.0128017 0.0168251 0.0140958 0.00338392 0.0237636 0.0285373 0.00597782 0.274322 0.179002 0.02167 0.0219461 0.00977044 0.149452 0.24378 0.00317326 0.00277401 0.440305 0.0766728 0.0115437 0.0236007 0.0274469 0.0207459 0.0187465 0.0237571 0.0653637 0.0207114 0.036885 0.00636458 0.0171265 0.00342285 0.643514 0.720278 0.851344 0.593444 0.0221798 0.0252776 0.0241747 0.0232497 0.00648285 0.0150509 0.00938287 0.0842995 0.0188742 0.0175137 0.0174686 0.0224537 0.129413 0.0402797 0.0315482 0.0111236 0.00948709 0.017325 0.033837 0.0412287 0.0357784 0.0285973 0.120093 0.011744 0.0101393 0.0193402 0.0143604 0.0200241 0.195171 0.0241027 0.0646327 0.109389 0.109018 0.0339017 0.0103979 0.0368615 0.120176 0.0196519 0.0260527 0.00524184 0.0568369 0.0694027 0.0364126 0.0162728 0.0141394 0.0223156 0.00535044 0.00899518 0.0164973 0.0441646 0.0695835 0.00974779 0.0143065 0.0151073 0.178657 0.0124057 0.726712 0.00706235 0.202514 0.477649 0.0395753 0.112372 0.138342 0.0230853 0.0113633 0.179531 0.0190009 0.0182721 0.0420817 0.0226287 0.0550697 0.0167836 0.02421 0.0909243 0.0186845 0.0823046 0.00750306 0.0294159 0.0334459 0.032952 0.013065 0.0334068 0.00950269 0.0329667 0.0228785 0.334082 0.022145 0.0181814 0.0468334 0.852512 0.00673329 0.00614035 0.119321 0.0244128 0.0164937 0.0157847 0.0179902 0.014771 0.172349 0.0290404 0.0234867 0.0244936 0.160201 0.0277501 0.0156985 0.117999 0.171072 0.0548205 0.0244868 0.024058 0.0727403 0.0687698 0.0211915 0.00816137 0.0213515 0.0138905 0.0409573 0.0519802 0.26467 0.046064 0.0114034 0.0232325 0.0786121 0.0362881 0.0219226 0.0236167 0.154378 0.0644486 0.0122828 0.0834851 0.0224705 0.0392591 0.0219881 0.0711242 0.0613727 0.00682059 0.0354797 0.0548812 0.108525 0.0525322 0.0191244 0.365711 0.119327 0.0210227 0.040051 0.10128 0.296153 0.713506 0.220341 0.0421315 0.0478443 0.0830021 0.106122 0.06429 0.0135717 0.159149 0.103455 0.137565 0.0411648 0.0312391 0.0417703 0.0153341 0.0516307 0.0334538 0.0138501 0.0436351 0.0218606 0.0198515 0.0317982 0.0483458 0.0246007 0.275868 0.0724704 0.020398 0.0837792 0.0257184 0.0140806 0.0482504 0.11961 0.0713081 0.0472033 0.0304117 0.0353626 0.602483 0.0403572 0.0190708 0.368214 0.117414 0.0325504 0.254238 0.0637964 0.0177452 0.264282 0.0449092 0.0417625 0.0792185 0.0379408 0.0369317 0.0285224 0.0356451 0.0462513 0.10546 0.384349 1.36605 0.0969523 0.249505 0.0297794 0.010693 0.0573134 0.0224451 0.0220729 0.383486 0.0104434 0.104869 0.0601873 0.535506 0.0107773 0.0110833 0.0521916 0.019793 0.0288175 0.0526236 0.0183537 0.00974382 0.073705 0.11879 0.0403786 0.0660973 0.191248 0.276329 0.740902 0.087784 0.0241423 0.0400091 0.00516695 0.421478 0.800277 0.935653 0.511184 0.00559406 0.0206809 0.140632 0.962135 0.0686934 0.122197 0.0333999 0.0420574 0.0256258 0.174692 0.0607354 0.134782 0.655012 0.546628 0.513518 0.455665 0.411824 0.705591 0.309332 0.89997 0.16708 0.525868 1.45734 0.339074 0.827267 0.385468 0.149524 0.356389 0.657899 0.954377 0.299959 0.965227 1.05372 0.699313 0.366904 0.976958 0.835644 0.650861 0.716837 0.841743 0.950061 1.05977 3.14997 1.95955 1.68847 3.00122 0.613932 0.839165 0.145365 1.58818 0.921547 1.10005 1.06465 0.507065 0.268124 2.61518 1.40155 0.130576 2.33691 1.99833 0.345517 0.180537 1.67904 0.117594 1.83472 2.151 0.220854 0.836492 0.501683 0.46662 2.65832 2.00957 0.328524 0.17383 0.132283 2.69274 0.292526 1.0701 1.78024 2.19019 2.52713 2.35731 2.59246 2.85245 2.09899 0.261319 1.02571 1.32778 2.05225 1.84042 0.0289924 1.68411 0.0132869 1.95927 0.0184153 0.0420691 0.0102296 0.0929479 0.120949 0.201063 0.0142137 0.0510103 0.0108166 2.52271 2.49984 1.46287 1.56753 3.84247 1.41072 0.012409 1.08845 0.265549 0.423497 1.21288 1.36006 0.857454 2.54404 1.71372 2.9436 4.16448 3.07729 2.78697 3.00536 0.973655 1.73296 1.80795 1.82183 2.27365 2.26809 1.62802 1.71983 0.946765 0.0272141 1.82316 0.783687 1.55515 1.271 1.02394 0.0403169 1.59818 1.45213 2.30904 0.0179194 0.995448 1.04559 1.07187 1.9964 0.220432 1.17873 1.35655 0.614293 1.60243 1.67616 1.02635 1.36489 2.44779 0.78869 0.0352772 3.84997 2.28856 2.19559 0.0235088 4.38736 1.40921 0.113289 0.697975 2.36634 0.0174399 1.39288 0.02752 1.3347 0.0103889 0.830852 0.48669 0.0103823 0.00922056 2.60381 1.22914 3.64907 3.07802 1.76286 1.43811 1.55715 0.00732288 0.00544969 0.595532 0.00816762 1.03461 0.288979 0.901479 0.464593 1.47893 1.34885 0.912226 1.33722 1.74177 1.33959 1.58871 0.354098 0.412534 2.8749 1.68737 0.0306507 2.283 1.38642 0.0150347 0.0164531 0.537295 0.00668113 0.0167293 1.20902 3.40542 0.0764645 0.700388 0.0913303 0.0447931 0.851075 0.0886513 0.622001 1.63231 1.04769 0.025319 0.57844 0.905849 1.17349 0.858431 0.956104 0.0435172 0.757094 1.30388 1.15142 0.0224895 0.0134808 0.020441 0.629256 0.859427 2.23898 0.0199579 1.23824 0.0458308 0.804286 1.29513 0.556708 1.02188 0.344654 0.503354 1.61761 0.52113 0.721766 0.317403 0.124689 0.795868 0.395474 0.969702 0.569663 0.880152 0.0131438 0.27173 0.260853 0.0646025 0.0383362 0.0928654 0.480593 1.37087 2.42507 0.0353548 0.0178794 0.0216505 0.0269096 1.31862 0.0408453 0.0102385 0.0355341 0.0139443 0.0360593 0.51019 0.0235049 0.0152453 0.0235812 0.0111855 0.0188882 0.0126525 0.0164025 0.0360151 0.104907 0.020147 1.16303 0.0163919 1.44974 1.90674 1.10217 1.43903 0.015784 0.786556 0.0437399 0.052596 0.0990431 0.715039 0.474741 0.0189734 1.46215 0.69009 1.07188 0.660482 0.0204224 0.327188 0.0214676 0.0156163 0.0154072 0.0251155 2.11114 0.0202336 2.52795 0.689303 0.0374269 0.0228222 0.016762 1.23337 1.12384 1.99681 0.0212059 0.0180442 0.0249881 1.9638 0.0254087 1.37741 1.33018 1.12714 1.63654 1.41205 0.868937 1.12181 1.39282 1.44215 0.235608 1.36153 1.68473 1.3889 1.65404 1.99724 0.570284 0.61882 1.97138 0.0244246 0.220074 0.644922 2.13918 1.18781 0.912441 0.599883 0.020952 0.786119 1.48673 0.0427492 1.54339 0.0114916 1.31428 1.54863 0.924455 1.7577 1.59404 1.17942 1.79579 1.04903 1.72078 0.842624 1.18817 1.05256 1.64919 1.07417 1.38006 0.849006 1.79817 1.24548 1.11585 0.79299 2.02725 0.868751 0.687971 0.969049 1.153 1.24828 2.36702 1.30662 1.59263 0.836652 1.49537 1.76175 1.67172 0.232486 0.40506 0.442951 0.00627167 0.00371851 0.00337833 0.00406961 0.239696 0.00404524 0.795537 0.00187377 0.00183176 1.23541 0.0049134 0.804986 0.00895577 0.00318752 0.314162 1.04022 0.128304 0.326743 0.00781516 0.597988 0.73258 1.21065 0.00243567 0.49401 0.226046 1.88059 0.29868 1.24671 0.273116 0.0081482 0.0367433 0.0744218 0.222814 0.0678683 0.614673 0.284462 0.130222 0.0067594 0.00644258 0.0109245 0.133571 0.0615003 0.162564 0.192225 0.000630824 0.407901 0.156544 0.20128 0.171042 0.2241 0.0125287 0.461174 0.0171044 0.00839701 0.176625 2.40126 0.149596 0.170448 0.123253 0.134537 0.25491 0.188205 1.71707 0.00111456 0.0340798 0.197689 0.184302 0.0674308 1.02866 1.39115 2.46375 0.332437 0.107027 0.00902969 1.62523 0.000461356 0.318919 0.010029 1.10864 0.00153357 0.00136481 0.248113 0.00181843 0.0996133 0.261405 0.0212495 0.15285 0.268547 0.00164876 0.298696 0.000406454 0.254839 0.765224 0.00124288 0.0330629 0.103633 0.0341796 0.00167884 0.466349 0.293374 0.661298 0.0232017 0.192395 0.15229 0.204926 0.0470134 0.0236158 0.230067 0.0153268 0.53571 0.86309 0.060521 0.0197087 0.0216952 0.0395562 0.0344812 0.6945 0.0619838 0.28945 0.163413 0.0999937 0.0228216 0.0497777 0.689413 0.00785733 0.293662 0.590358 0.030922 0.7032 0.251024 0.0464598 0.0625304 0.153192 0.310551 0.0421784 1.56159 0.451542 0.38572 0.0196742 2.20801 0.0828897 0.00210969 0.000310914 0.00639263 0.078476 0.100681 0.0800143 0.00160026 0.627967 1.32143 0.0003439 0.0597865 0.20179 0.020504 1.68128 0.236429 0.897762 0.232883 0.0926587 0.12037 1.23925 0.0318421 0.0295474 0.181744 0.227956 0.224952 0.649222 0.0152371 0.25037 1.4964 0.24477 0.00386753 0.00800639 1.82479 0.00702305 0.0241287 0.00660069 1.07234 0.482493 1.41321 0.156258 0.309185 0.0261387 0.98986 0.866179 0.0568057 0.181485 0.0408693 0.0732458 0.147913 0.194448 0.139149 0.00458934 0.390305 0.646213 0.0922234 0.0365579 0.0102384 0.0308776 0.0189859 0.468019 0.0208996 0.0575601 0.0194205 0.0343316 0.0159737 0.101649 0.804154 0.193837 0.658813 0.0209644 0.0217091 0.226106 0.0258141 0.392592 0.0432565 0.00134364 0.217542 0.706733 0.130821 0.0299304 0.000301712 0.67357 0.227097 0.529474 0.154207 0.0853659 0.0158728 0.0739474 0.404459 0.938492 0.047142 0.0441512 0.317973 0.0554954 0.0880599 0.530241 1.32163 0.781612 0.102213 0.24039 0.0800411 0.475342 0.0162122 1.22797 0.0211557 0.28887 1.00454 0.00542964 0.0800505 0.788195 0.548768 0.414078 0.210505 0.000181305 0.100817 0.4