# vtk DataFile Version 5.1
vtk output
ASCII

DATASET UNSTRUCTURED_GRID
POINTS 5212 float
-0.4801 -0.1 4.07
-0.4801 0.2001 4.07
-0.4656 -0.1 4.2163
-0.4656 0.2001 4.2163
-0.46264 -0.0986152 3.91392
-0.4656 0.2001 3.9237
-0.423 -0.1 4.357
-0.423 0.2001 4.357
-0.423 -0.1 3.783
-0.423 0.2001 3.783
-0.3536 -0.1 4.4867
-0.3536 0.2001 4.4867
-0.3536 -0.1 3.6533
-0.3536 0.2001 3.6533
-0.2604 -0.1 4.6004
-0.2604 0.2001 4.6004
-0.266095 -0.1 3.54655
-0.2604 0.2001 3.5396
-0.183027 0.2001 3.85729
-0.1744 2.2301 4.5994
-0.167087 0.2001 3.74319
-0.155488 2.23929 4.5297
-0.154028 2.2229 4.66768
-0.1547 0.2205 3.69
-0.152608 2.23314 4.59963
-0.1467 -0.1 4.6936
-0.1467 0.2001 4.6936
-0.1467 -0.1 3.4464
-0.1467 0.2001 3.4464
-0.140594 0.2001 4.01817
-0.1384 2.5483 4.6375
-0.1376 2.23827 4.57512
-0.136691 2.23236 4.62384
-0.12932 2.54288 4.62314
-0.128587 2.53771 4.6498
-0.128998 2.58788 4.64216
-0.123556 2.57182 4.62777
-0.123239 2.56843 4.65204
-0.106123 2.53683 4.65844
-0.110355 2.54827 4.61545
-0.1072 2.2544 4.479
-0.0967212 2.47955 4.65599
-0.10398 2.22454 4.71818
-0.102007 2.23543 4.63833
-0.104303 2.24469 4.56102
-0.0990997 2.3908 4.61534
-0.101233 2.52403 4.63555
-0.0982813 2.11919 4.58466
-0.0991819 2.52316 4.60872
-0.097012 2.33503 4.61182
-0.0944628 2.40387 4.58606
-0.0959225 2.39188 4.65083
-0.0936985 2.51438 4.65838
-0.0884635 2.30332 4.56667
-0.0903224 2.31385 4.64673
-0.0884818 2.12677 4.54502
-0.0873938 2.44501 4.62238
-0.0868104 2.1146 4.62421
-0.226753 0.2001 4.34915
-0.0836273 2.44873 4.59279
-0.0847912 2.43799 4.65473
-0.0787363 2.51105 4.65973
-0.0763 1.9631 4.5653
-0.0750599 2.25806 4.55642
-0.074459 0.871561 4.06469
-0.0752682 2.24385 4.60096
-0.0736901 2.45613 4.59277
-0.0749448 2.51773 4.60432
-0.0780595 2.26513 4.64509
0.04874 0.68348 3.90622
-0.0716 2.5048 4.6311
0.530591 -0.1 4.46958
-0.0698102 2.25038 4.55426
-0.0689923 2.23955 4.64444
-0.0664 1.9694 4.5255
-0.012538 0.0126213 3.54304
-0.0652965 2.46542 4.62655
-0.0659009 2.45039 4.65739
-0.0647253 2.5126 4.65951
-0.065 1.9598 4.605
-0.0596058 2.45877 4.59254
-0.0596671 2.13186 4.51567
-0.0576633 2.11777 4.65364
-0.0556668 2.52695 4.60761
-0.0538 0.2699 3.5612
-0.0514109 2.52536 4.65835
-0.0489744 2.52953 4.63459
-0.0474566 0.842178 4.17515
-0.0472 0.9252 3.9502
-0.0462893 2.55783 4.61565
-0.0465145 1.96737 4.56485
-0.0447071 2.55625 4.65739
-0.0412893 2.45086 4.59391
-0.0435396 2.4466 4.65515
-0.0401152 1.97131 4.54015
-0.0398243 2.58734 4.6303
-0.0385438 2.58007 4.65166
-0.0396752 1.96524 4.58995
-0.0393873 2.60035 4.64214
-0.0378298 2.449 4.62115
-0.0365532 2.26666 4.46081
-0.0379 1.9771 4.4965
-0.03775 0.2001 4.15248
-0.0347424 2.24902 4.60529
-0.0355 1.9603 4.6341
-0.479822 0.0587755 4.0672
-0.0324186 2.23287 4.73814
-0.0277 2.5654 4.6251
-0.0264655 2.55208 4.65002
-0.0301731 2.48193 4.60002
-0.0223711 0.2001 4.16173
-0.0210259 1.97633 4.52183
-0.0214241 1.96555 4.60797
-0.0205552 2.14134 4.50533
-0.019723 2.5654 4.63755
-0.0178618 2.12197 4.66422
-0.017 -0.1 4.763
-0.017 0.2001 4.763
-0.017 -0.1 3.377
-0.017 0.2001 3.377
-0.0157474 2.39378 4.6504
-0.0153681 0.2001 4.11516
-0.0134654 2.40198 4.61804
-0.011791 1.37558 4.17955
-0.00263975 2.26002 4.55443
-0.002044 2.32593 4.5687
-0.25939 0.0444697 4.60123
-0.00104908 2.24906 4.64309
-0.000503238 2.32619 4.64667
-0.000854007 2.28605 4.56016
0.000860663 2.27744 4.64509
-0.00219126 1.98436 4.48692
0.0046008 1.98075 4.51486
0.00357468 2.25503 4.59999
0.00301951 2.32883 4.60595
0.00377721 1.96823 4.61496
0.00837816 1.96531 4.6436
0.00459883 2.28941 4.60007
0.0092 1.7515 4.4509
0.0132064 1.48011 4.28147
0.0104 1.5131 4.1356
0.0104 1.268 4.0769
0.0174143 0.709357 4.25499
0.019242 2.1456 4.51595
0.019107 1.54503 4.48909
0.0215991 2.12891 4.65364
0.0236902 1.82081 4.4961
0.0257478 2.2531 4.6408
0.0325123 2.26388 4.56145
0.0269205 1.98298 4.52229
0.0252926 0.806313 4.27071
0.149825 0.2001 4.52843
0.026449 1.97221 4.60879
0.0314757 0.980515 3.86216
0.0295 1.648 4.3834
0.0301125 1.09153 4.45463
0.0301274 1.27985 4.08833
0.0312827 1.07089 4.4685
0.0321009 2.27194 4.48035
0.0315 1.6093 4.2284
0.0315 1.4168 4.0428
0.0325944 1.06648 4.44785
0.0360802 1.07945 4.42493
0.0345448 1.08774 4.48094
0.0337417 1.51239 4.54344
0.0355299 1.10774 4.46625
0.0350799 1.09869 4.42874
0.0371881 2.24512 4.71818
0.0341481 1.8539 4.50354
0.0338899 1.23724 4.0461
0.70114 0.2001 4.26913
0.0348063 1.10974 4.44372
0.0390106 1.05069 4.46821
-0.00054754 0.718464 3.75063
0.0358697 1.06622 4.48125
0.0417222 1.10264 4.48513
0.0423083 1.12354 4.45329
0.0398434 1.3547 4.16057
0.0422338 1.98821 4.49732
0.0437959 1.05888 4.42236
0.0413014 1.04812 4.44648
0.0414283 1.38319 4.22495
0.141293 0.760493 3.84325
0.0434529 1.87088 4.50915
0.0437 1.9715 4.6341
0.0447368 1.12578 4.33161
0.0503148 0.88111 4.17379
0.0473722 1.07498 4.40437
0.0450254 1.14426 4.28619
0.0450553 1.05304 4.48627
0.0467334 1.09821 4.39991
0.0455026 1.98326 4.54087
0.0456237 1.11193 4.3187
0.0458962 1.08742 4.49564
0.0461986 1.97729 4.59011
0.0445551 1.40277 4.20695
0.0444218 1.07032 4.49493
0.0475128 1.14556 4.33501
0.0447191 1.12037 4.41841
0.048489 1.11641 4.36359
0.048079 1.83226 4.50357
0.0499873 1.1088 4.29337
0.0486988 2.13612 4.62598
0.0488118 2.14617 4.54506
0.0503314 1.09905 4.35971
0.0456972 1.11624 4.47754
0.0538506 1.04306 4.4271
0.0485238 1.04134 4.47141
0.0508047 1.03778 4.45131
0.0512547 1.17196 4.29537
0.0521391 0.2001 3.9853
0.0523282 1.9812 4.56548
0.0559465 1.10273 4.49449
0.0540315 1.09101 4.32714
0.0572317 1.05997 4.40117
0.0556263 1.09984 4.38394
0.0538768 1.13582 4.36758
0.057734 1.1645 4.33922
0.0601756 1.1395 4.44541
0.0585369 1.43514 4.23814
0.0582583 1.03425 4.46237
0.0579271 1.04045 4.48066
0.0536392 1.12963 4.46551
0.0583848 1.08246 4.35874
0.0569664 1.05623 4.49562
0.0580856 1.89476 4.53043
0.0538635 1.0527 4.29985
0.0533422 1.13551 4.42538
0.0592812 1.08334 4.50122
0.0595366 1.08728 4.30605
0.0576449 1.11958 4.38544
0.0670451 1.06934 4.50015
0.0600999 2.14288 4.58482
0.0571871 1.35212 4.29506
0.061783 1.86874 4.52735
0.063235 1.03288 4.44272
0.0618076 1.90425 4.55048
0.0615359 1.18548 4.30936
0.0596949 1.08121 4.38319
0.0597683 1.12223 4.48067
0.0648475 2.26674 4.57478
0.0676343 1.11208 4.48988
0.0730893 1.0448 4.48437
0.0706765 1.03565 4.47126
0.0660417 0.442149 4.02344
0.0661148 2.26087 4.62365
0.0681759 1.07171 4.3458
0.0693983 1.09763 4.24793
0.068581 1.14631 4.41939
0.0711728 1.07345 4.31574
0.0718856 1.03799 4.42105
0.0772487 1.06062 4.49349
0.0709 1.9887 4.5255
0.0707399 1.13537 4.46373
0.0690813 1.1436 4.38417
0.0728583 1.03198 4.45648
0.0719833 1.58324 4.34121
0.0723 1.9791 4.605
0.0748378 1.17251 4.35678
-0.28882 0.2001 4.1982
0.0728753 1.05341 4.39486
0.0709997 1.09596 4.49702
0.0800779 1.56744 4.36564
0.0767181 1.62821 4.09566
0.0813711 1.07744 4.27397
0.0774219 1.14636 4.43515
0.076221 1.19565 4.32046
0.078142 1.07982 4.49667
0.0690971 1.25043 3.9978
0.0765951 0.443318 4.01125
0.34973 0.0218059 3.49921
0.0762172 1.12473 4.4773
0.0762043 1.03265 4.43946
0.0782641 1.1133 4.20331
0.0739191 1.06972 4.37574
0.0867778 1.60395 4.35473
0.0811098 2.26597 4.59923
0.090807 1.24072 3.97374
0.0822 1.9854 4.5653
0.0828685 0.988099 4.14939
0.081683 2.27385 4.5288
0.0837555 1.10922 4.48694
0.084793 0.935608 4.16024
0.087411 0.988733 4.17934
0.0851329 1.03399 4.4517
0.0848759 2.25586 4.66812
0.213891 0.0961839 3.44902
0.0880114 1.06589 4.30527
0.0833199 0.949886 4.13478
0.0893554 1.15184 4.39015
0.0848954 1.03961 4.164
0.874821 0.107505 3.96847
0.0886266 1.06176 4.34168
0.0871 1.9428 4.5756
0.0914585 1.05049 4.39746
0.0869228 1.23005 4.25956
0.0859219 1.0406 4.46686
0.0891719 1.0688 4.22201
0.0897181 1.09059 4.22517
0.0885854 1.05383 4.48006
0.0848681 1.24469 4.33361
0.109071 0.2001 4.67616
0.0908639 0.923897 4.18552
0.0950295 0.8159 4.1644
0.0896749 1.70218 4.17137
0.0911851 1.5657 4.0348
0.0901752 1.32994 3.96633
0.0919459 1.06991 4.48465
0.0919924 1.68976 4.308
0.0925205 1.06326 4.37407
0.100884 1.2082 4.32395
0.0910485 0.855542 4.13871
0.0942834 0.930224 4.11101
0.0900966 1.07782 4.16769
0.0937011 1.03817 4.1918
0.0927027 1.14998 4.42068
0.33905 0.894788 3.85151
0.0925354 1.17065 4.37107
0.0967487 0.84315 4.18542
0.0971155 1.11598 4.16786
0.10615 1.06434 4.49664
0.0971483 0.999477 4.20098
0.097 0.303 3.4751
0.0980633 1.25174 4.21484
0.099977 0.866625 4.07324
0.0984385 1.0688 4.19795
0.267116 0.2001 4.53696
0.102706 0.43085 4.12727
0.0994519 1.09861 4.19225
0.798114 0.2001 4.18087
0.102333 1.3576 4.34912
0.10541 0.750646 4.16888
0.102312 2.26863 4.60175
0.10805 1.06091 4.30861
0.100754 0.774026 4.14702
0.110448 1.23573 4.27815
0.1071 1.14921 4.39419
0.105673 1.16475 4.41762
0.10414 0.898321 4.20729
0.105652 0.842456 4.10557
0.121221 1.62657 4.37052
0.103297 1.06904 4.26925
0.107789 1.05694 4.40687
0.108082 1.06539 4.37861
0.108428 1.05967 4.35182
0.108218 1.51821 4.31818
0.106765 0.781106 4.18989
0.109772 0.758615 4.12181
0.108955 0.841588 4.20785
0.109081 1.43793 4.3141
0.110263 1.49428 4.33348
-0.342093 0.0681984 4.05959
0.704006 0.2001 4.47422
0.115805 1.49289 4.35472
0.11397 1.54491 4.34391
0.0586076 0.048703 3.70465
0.411816 0.0839426 3.68854
0.10847 1.14192 4.4149
0.115012 1.52769 4.35913
0.114178 1.80395 4.48512
0.560023 0.2001 4.43794
0.118003 1.45155 4.34615
0.112162 1.24893 4.24879
0.117062 1.13502 4.40022
0.122603 1.01475 4.22867
0.117232 0.694311 4.16405
0.118817 1.07395 4.38784
0.122371 0.75905 4.20783
0.119547 0.492228 4.04375
0.121687 0.686665 4.13775
0.126639 1.15647 4.38324
0.114579 1.17571 4.37007
0.119896 1.43594 4.23891
0.119238 1.27519 4.18239
0.125829 1.20837 4.32952
0.118388 1.35855 4.28981
0.121705 0.524773 4.0886
0.121135 0.550898 4.0591
0.119813 1.07628 4.40617
0.119141 1.12563 4.41052
0.124843 1.46789 4.36483
0.122545 0.444795 3.99286
0.127786 1.26831 4.21282
0.122622 0.43999 4.0385
0.121896 0.571439 4.0891
0.127958 0.820704 4.22394
0.125812 0.848433 4.08224
0.123586 1.57404 4.372
0.1237 -0.1 4.8056
0.1237 0.2001 4.8056
0.127591 -0.1 3.33401
0.1237 0.2001 3.3344
0.126345 1.32843 4.30259
0.126866 1.33316 4.25519
[...]
POINT_DATA 5212
SCALARS weights float 1
LOOKUP_TABLE default
1.01443 0.725589 0.540521 1.15907 0.785776 1.04466 0.45886 1.02374 0.909829 0.948818 0.500033 0.489126 0.963003 0.726 0.5741 1.108 0.515295 0.367643 1.8598 0.00924625 0.868871 0.0260867 0.0219614 0.142203 0.00471429 1.0317 0.503746 0.997257 0.688708 1.63535 0.00144917 0.0482733 0.0451497 0.00619815 0.00551732 0.000399822 0.00126534 0.00323642 0.00210814 0.00342577 0.0231281 0.00995343 0.0507205 0.0747962 0.0641849 0.0308505 0.0131517 0.135084 0.00365652 0.0397966 0.00623455 0.0122286 0.00285689 0.0261513 0.0153915 0.0509294 0.0102206 0.0501297 1.16358 0.00240865 0.00777379 0.0013441 0.0145068 0.00349643 0.520115 0.0397223 0.000405146 0.00568769 0.00463427 1.58957 0.00908974 1.41669 0.0333858 0.128803 0.00950288 3.20675 0.00631099 0.00478096 0.00669149 0.01302 0.00248791 0.0871029 0.0859134 0.0045057 0.551993 0.00517464 0.0206969 0.163818 0.784681 0.00310629 0.0169182 0.00110603 0.00356163 0.00761713 0.022601 0.000992722 0.00393772 0.0230165 0.000293489 0.0146648 0.0240955 0.00954265 0.166051 0.0279118 0.0115159 0.48943 0.0467372 0.00596399 0.00564065 0.0119193 0.046465 0.0298204 0.0192707 0.0673001 0.00539477 0.0655035 0.926494 0.618757 0.764956 0.88993 0.0079546 0.432221 0.0353914 0.0546135 0.0542852 0.0164302 0.41387 0.113481 0.0190255 0.00352125 0.00518813 0.00784148 0.0452706 0.0499739 0.0382743 0.0228528 0.0193441 0.0276123 0.0158758 0.0381346 0.351177 0.00847143 0.0300881 0.053425 0.0105229 0.0453053 0.0335915 0.0701214 0.0881291 0.0124978 0.0372403 1.20933 0.0283944 0.353738 0.0096637 0.00574194 0.093829 0.00314867 0.044464 0.247557 0.473612 0.00560826 0.00435083 0.00422313 0.0229527 0.00204287 0.00764219 0.0437546 0.0195441 0.0394942 0.413641 0.00215508 0.00152375 1.25424 0.00183493 0.00229172 0.00286569 0.124737 0.0231156 0.00716813 0.0033317 0.0441939 2.5212 0.0157085 0.00986251 0.0171671 0.0711501 0.00371877 0.0724949 0.00128713 0.010876 0.0236148 0.00834561 0.00093498 0.0229625 0.0339728 0.00106829 0.00851357 0.00974658 0.00714712 0.0369892 0.0267704 0.104898 0.0928021 0.00473162 0.00168802 0.00457411 0.00103381 0.00229236 0.0154804 0.479825 0.0186619 0.00249303 0.0110069 0.00277253 0.0082919 0.0061434 0.0125703 0.00361498 0.0686102 0.00116697 0.00117096 0.0015616 0.00364423 0.00217426 0.0385151 0.0214007 0.00846331 0.000922045 0.00950648 0.0086442 0.00110671 0.0991607 0.0589228 0.0377185 0.00168155 0.0194623 0.00446473 0.00653167 0.00175043 0.0331584 0.002135 0.00223783 0.00124071 0.0365117 0.0406696 0.00852837 0.102971 0.00449832 0.00932474 0.00434366 0.00146638 0.0156795 0.0103252 0.023795 0.000612411 0.0314155 0.0133468 0.00714226 1.21383 0.00382949 0.00184909 0.0110748 0.541251 0.0164172 0.0168371 0.00680794 0.00145952 0.0452151 0.0214962 4.10497 0.00434716 0.00146469 0.121684 0.00882751 0.0232013 0.0208154 0.02937 0.0106596 0.0646085 0.0186926 0.00869526 0.0170243 0.050925 0.00719057 0.0296258 2.45848 0.00879595 0.0821343 0.00764384 0.113152 1.8466 0.00624398 0.0242752 0.00397377 0.0639467 0.00476005 0.00266681 0.0433788 0.0055602 0.00135176 0.356868 0.04571 0.0231898 0.182951 0.58698 0.0423526 0.00724277 0.101654 0.0028322 0.0121694 0.0172286 0.0551847 0.0720683 0.00882299 0.00702945 1.94986 0.00847156 0.0255272 0.0689616 0.00897982 0.0429688 0.656172 0.0795362 0.0603485 0.00853671 0.408525 0.0292573 0.0557593 1.16952 0.0104229 0.0188372 0.0119961 0.0118871 0.0163525 0.0147566 0.00655322 0.00451879 0.0652863 0.020452 0.053304 0.0171964 0.0105394 0.00382923 0.00817976 0.0297091 0.024742 0.0229361 0.0486832 0.0156719 0.008419 4.24987 1.19432 0.00839638 0.0237036 3.0289 2.19299 0.00352113 0.00957671 0.0632891 0.752508 0.00422661 0.00885886 0.00394392 0.0343397 0.0115761 0.00370974 0.0523187 0.0313341 0.0159802 0.00895616 0.0115903 0.0490843 0.0536892 0.018828 0.0143877 0.0258269 0.0250193 0.00711531 0.0081644 0.0192424 0.0316358 0.0130315 0.0341297 0.0118553 0.0458116 0.0326238 0.0417835 0.785669 0.756173 0.54985 0.815056 0.0177195 0.0161849 0.0251748 0.0168041 0.0242822 0.00460837 0.0108145 0.00798122 0.00359498 0.123487 0.118208 0.0417247 0.0587182 0.0211819 0.0184813 0.00503715 0.0170845 0.0241606 0.0605515 0.00284609 0.0393497 0.311029 0.0200713 0.0261473 0.0800194 0.0399955 0.0468295 0.0356981 0.0154264 0.0679858 0.0305507 0.0231574 0.0343488 0.00664797 0.0299566 0.0232977 0.00257622 0.209754 0.0233309 0.055405 0.0159697 0.0870926 0.00551455 0.0217332 0.0155897 0.0360926 0.0316319 0.372354 0.0117688 0.0206612 0.00523801 0.12498 0.0101239 0.0206711 0.0231765 0.0181138 0.0173792 0.0384352 1.03062 0.050902 0.743648 0.00271391 0.0628353 0.0637298 0.0206101 0.247384 0.00402518 0.00691536 0.0269632 0.0302548 0.0225209 0.0173485 0.0228957 0.0192146 0.029074 0.00581916 0.026899 0.0870253 0.00699647 0.0210712 0.00729855 0.0400526 0.0174207 0.0367914 0.0722815 0.041903 0.0138054 0.0146738 0.0109291 0.0413595 0.0374351 0.0541018 0.00698409 0.00627231 0.137655 0.0534485 0.0864707 0.0378155 0.0585251 0.0791043 0.0110075 0.0326546 0.0340795 0.05187 0.0110587 0.0214563 0.0423351 0.00997855 0.0171702 0.0763958 0.0460439 0.0127279 0.0704027 0.0483638 0.0542763 0.0124216 0.0575401 0.02358 0.0678714 0.0273177 0.029074 0.243222 0.023052 0.0276751 0.0625618 0.00545313 0.0243081 0.00894256 0.00787862 0.00980539 0.0152181 0.0499167 0.0175636 0.0295828 0.0126735 0.0150849 0.0147528 0.0346151 0.0123242 0.034603 0.0284855 0.0395196 0.0121701 0.0216781 0.0217466 0.150112 0.0306754 0.0559003 0.0120996 0.00899531 0.0153745 0.0482431 0.0351904 0.0357245 0.0588495 0.0214049 0.013576 0.112955 0.0403814 0.0100021 0.0327694 0.067949 0.0579952 0.0596959 0.022911 0.053847 0.0393646 0.151067 0.0512041 0.0774689 0.0197778 0.148574 0.146809 0.143233 0.015021 0.0108158 0.0221887 0.00937772 0.0246649 0.0535017 0.061725 0.0208468 0.0173413 0.00588255 0.00945718 0.0588139 0.0165281 0.0252331 0.050577 0.00666331 0.0101531 0.00531394 0.0586921 0.0169362 0.0694092 0.0185058 0.0426564 0.0396082 0.0122712 0.0117984 0.0158094 0.013789 0.0337131 0.00698569 0.0276393 0.00234049 0.01008 0.0198113 0.0185772 0.0304905 0.0129425 0.0338861 0.0451507 0.0848769 0.0147442 0.0178973 0.0367928 0.0289846 0.0103193 0.053028 0.0242405 0.0217578 0.0299975 0.0258947 0.0538691 0.00962267 0.0237682 0.294131 0.44157 0.0187618 0.0247237 0.0228323 0.00582791 0.0245142 0.00843766 0.0212037 0.00480914 0.125087 0.0132466 0.0455198 0.0575287 0.00698977 0.0668194 0.0687879 0.0376115 0.0825823 0.0121522 0.0346349 0.0140428 0.196315 0.00829101 0.599533 0.106744 0.00667342 0.0320628 0.0129878 0.0357161 0.0150492 0.0832826 0.0135539 0.0105158 0.0224473 0.0328562 0.0128762 0.0939605 0.0431449 0.155157 0.00487795 0.0108367 0.0937078 0.0325904 0.0338044 0.0189052 0.00735971 0.0102288 0.0481469 0.0459369 0.0145587 0.0503996 0.0136851 0.0461691 0.0182691 0.0184049 0.0353459 0.0157364 0.0213119 0.0493034 0.0937738 0.00480001 0.0313838 0.00696745 0.00752581 0.0214618 0.0236005 0.0056411 0.0506992 0.0488403 0.0205441 0.0146874 0.0581503 0.00907806 0.0320214 0.0265386 0.104831 0.0220704 0.0030289 0.193564 0.0526534 0.0161575 0.0922255 0.0374962 0.0600505 0.076858 0.0717418 1.00486 0.0459308 0.0657482 0.0315922 0.0299731 0.011653 0.037455 0.0339242 0.0312344 0.0264257 0.0160849 0.00361658 0.00484837 0.02839 0.0154165 0.00452634 0.0954081 0.0161013 0.0544545 0.0218534 0.0164389 0.00542594 0.0989911 0.0408796 0.0101432 0.0205936 0.00726846 0.0199912 0.0635386 0.0118369 0.00391691 0.018155 0.0284923 0.0929188 0.0108637 0.00940621 0.0196918 0.0525758 0.0400522 0.0534305 0.204104 1.12101 0.0218281 0.0165957 0.00330085 0.0155097 0.0258809 0.0248354 0.0256387 0.0449465 0.0117666 0.0178669 0.0496213 0.00440306 0.023021 0.0268056 0.0146557 0.0402253 0.0225425 0.0126884 0.0264755 0.0290925 0.0317626 0.0405859 0.0214127 0.975435 0.432691 0.992489 0.778262 0.0472562 0.0149443 0.0252468 0.0424419 0.00969684 0.0436262 0.115186 0.0260079 0.0338003 0.0424047 0.0302168 0.0393155 0.106682 0.135349 0.193016 0.00734958 0.00226668 0.0499225 0.0333654 0.0186507 0.231732 0.0733666 0.0646638 0.117092 0.952923 0.298627 0.1981 0.0225978 0.0258255 0.0247095 0.00462292 0.0181305 0.0397196 0.0171721 0.0073849 0.0252345 0.0319067 0.122585 0.109904 0.00539704 0.140122 0.0629219 0.00603185 0.0306389 0.028466 0.0151822 0.151887 0.0382038 0.0107372 0.0492274 0.01064 0.180718 0.0044645 0.00507091 0.0101866 0.0197043 0.0123688 0.0187074 0.0793486 0.0264041 0.0600436 0.0126385 0.0365875 0.0493754 0.0156869 0.0187533 0.018377 0.00707131 0.0318925 0.0352295 0.0426932 0.632834 0.498213 0.423658 0.0317579 0.0909581 0.00434928 0.0986515 0.0379944 0.00708908 0.0135843 0.0365641 0.0178931 0.00106757 0.0253637 0.0374022 0.0400304 0.0209784 0.0493745 0.00881482 0.0283753 0.0294905 0.0334777 0.0109075 0.0285617 0.0275678 0.0179691 0.0557351 0.0107553 0.0277996 0.0376549 0.0389228 0.0193487 0.00255506 0.021004 0.0668371 0.040135 0.0245523 0.0371859 0.0334168 0.0179951 0.0335632 0.00441346 0.0586764 0.0616031 0.0806554 0.0268978 0.0472625 0.0290651 0.0200455 0.0212304 0.0208396 0.0183703 0.017746 0.170322 0.0345845 0.025722 0.00501971 0.0190463 0.0426901 0.0412387 0.0310962 0.0994214 0.031234 0.0696718 0.0215456 0.0158098 0.109882 0.0305271 0.0608613 0.0332346 0.0228274 0.0366219 0.0810246 0.00556058 0.0398082 0.0818774 0.102066 0.0368426 0.0122271 0.026094 0.0162344 0.021581 0.0038676 0.0317742 0.018316 0.0281598 0.0183164 0.037068 0.0495676 0.0337513 1.52884 0.164477 0.1096 0.0474928 0.0157359 0.0235907 0.0255351 0.0412203 0.0275649 0.0587537 0.036971 0.0431994 0.0299443 0.00602216 0.0507865 0.0272208 0.0379469 0.238681 0.0288609 0.0362149 0.07273 0.0532159 0.0316808 0.0301041 0.0333429 0.0604798 0.0272301 0.0376734 0.0384073 0.0166268 0.0254762 0.0361628 0.0127191 0.15831 0.0159008 0.00840114 0.00931641 0.0513769 0.00711455 0.0843076 0.164706 0.0852839 0.0124724 0.0822009 0.0467915 0.0998418 0.0352136 0.0370485 0.0512248 0.0259517 0.0112927 0.00847431 0.119314 0.0393466 0.0606801 0.0217786 0.0466832 0.0359338 0.361653 0.0862054 0.11351 0.0351625 0.054536 0.011049 0.0205601 0.036104 0.135829 0.178538 0.189898 0.0476283 0.0307986 0.0408902 0.0136583 0.0215372 0.0223856 0.027114 0.103182 0.0214602 0.0198748 0.0141423 0.0566037 0.0201001 0.0598536 0.051409 0.0415248 0.0170972 0.0142816 0.091767 0.0203579 0.0366687 0.0321164 0.0135221 0.0180369 0.0150465 0.0158391 0.0180056 0.0436773 0.0306643 0.0203979 0.0800282 0.0441903 0.0201288 0.00394532 0.0200777 0.0451406 0.0336357 0.0199208 0.0832915 0.0346919 0.0719159 0.0230213 0.0402061 0.0394894 0.0804049 0.0501404 0.0277023 0.0473123 0.00956967 0.0256655 0.0753031 0.0688544 0.272539 0.638568 0.027397 0.119451 0.0472083 0.0193421 0.00996205 0.00224059 0.191216 0.0276302 0.195692 0.141412 0.0468577 0.0575277 0.63928 0.00841189 0.0260002 0.0483635 0.0852442 0.0117481 0.0755447 0.210809 0.0652249 0.0465792 0.0399538 0.0249409 0.011646 0.0772198 0.0585426 0.0738198 0.00865908 0.00496112 0.013349 0.0139962 0.0181333 0.0232651 0.00472097 0.0418263 0.0272445 0.0354723 0.0134335 0.0264535 0.0337493 0.030691 0.00681048 0.0141725 0.00607442 0.0704981 0.020078 0.0116509 0.0544492 0.0765799 0.0874683 0.0259354 0.0135791 0.0160876 0.0176333 0.0408951 0.00865903 0.0815088 0.0171802 0.0206359 0.117113 0.18066 0.0365442 0.0411179 0.0154278 0.00593268 0.0204946 0.294527 0.0344211 0.0366837 0.0112811 0.0239335 0.03907 0.0527538 0.0526512 0.0142897 0.0173987 0.0320252 0.12255 0.127822 0.0298578 0.186214 0.0600579 0.0120201 0.0613348 0.0554007 0.0602556 0.0288467 0.0813678 0.0554398 0.0527787 0.0338881 0.0222036 0.0265916 0.0944571 0.0128018 0.0168251 0.0140958 0.00338392 0.0237637 0.0285373 0.00597786 0.274322 0.179003 0.0216699 0.021946 0.0097705 0.149452 0.243781 0.00317326 0.00277405 0.440306 0.0766728 0.0115437 0.0236006 0.0274469 0.0207458 0.0187465 0.0237573 0.0653636 0.0207114 0.0368849 0.00636462 0.0171265 0.00342285 0.643516 0.720278 0.851343 0.593444 0.0221798 0.0252775 0.0241747 0.0232498 0.0064829 0.0150509 0.00938291 0.0842994 0.0188742 0.0175137 0.0174687 0.0224537 0.129413 0.0402796 0.0315481 0.0111236 0.00948715 0.0173251 0.033837 0.0412288 0.0357784 0.0285974 0.120093 0.0117441 0.0101393 0.0193402 0.0143603 0.0200241 0.195171 0.0241028 0.0646327 0.109389 0.109018 0.0339018 0.0103979 0.0368615 0.120176 0.0196519 0.0260528 0.00524189 0.0568369 0.0694027 0.0364127 0.0162728 0.0141393 0.0223156 0.00535047 0.00899522 0.0164973 0.0441648 0.0695835 0.00974779 0.0143065 0.0151074 0.178657 0.0124057 0.726712 0.00706239 0.202514 0.477648 0.0395753 0.112372 0.138342 0.0230854 0.0113634 0.179531 0.019001 0.0182721 0.0420818 0.0226287 0.0550696 0.0167836 0.02421 0.0909242 0.0186845 0.0823046 0.00750307 0.0294161 0.0334459 0.032952 0.013065 0.033407 0.0095028 0.0329667 0.0228786 0.334082 0.022145 0.0181814 0.0468334 0.852512 0.00673335 0.00614041 0.119321 0.0244128 0.0164937 0.0157847 0.0179902 0.014771 0.172349 0.0290404 0.0234867 0.0244936 0.160201 0.02775 0.0156984 0.117999 0.171072 0.0548205 0.024487 0.0240581 0.0727403 0.0687698 0.0211914 0.00816133 0.0213516 0.0138905 0.0409572 0.0519802 0.26467 0.046064 0.0114034 0.0232325 0.078612 0.0362881 0.0219226 0.0236167 0.154378 0.0644486 0.0122827 0.0834852 0.0224705 0.0392592 0.021988 0.0711242 0.0613727 0.0068205 0.0354797 0.054881 0.108525 0.0525322 0.0191244 0.365711 0.119328 0.0210227 0.0400509 0.101281 0.296153 0.713506 0.220341 0.0421315 0.0478444 0.0830019 0.106122 0.0642901 0.0135718 0.159149 0.103455 0.137564 0.0411648 0.0312391 0.0417702 0.015334 0.0516307 0.0334537 0.0138501 0.043635 0.0218606 0.0198515 0.0317981 0.0483459 0.0246008 0.275868 0.0724703 0.0203981 0.0837791 0.0257182 0.0140807 0.0482504 0.11961 0.0713082 0.0472032 0.0304117 0.0353625 0.602483 0.0403571 0.0190709 0.368214 0.117414 0.0325505 0.254237 0.0637963 0.0177451 0.264282 0.0449093 0.0417625 0.0792183 0.0379407 0.0369316 0.0285224 0.035645 0.0462513 0.10546 0.384349 1.36605 0.0969522 0.249505 0.0297794 0.010693 0.0573136 0.0224451 0.0220729 0.383487 0.0104434 0.104869 0.0601871 0.535506 0.0107773 0.0110833 0.0521915 0.0197929 0.0288176 0.0526234 0.0183537 0.00974385 0.0737051 0.11879 0.0403786 0.0660974 0.191248 0.276329 0.740902 0.0877839 0.0241423 0.0400092 0.00516696 0.421479 0.800277 0.935654 0.511185 0.00559405 0.0206809 0.140631 0.962136 0.0686934 0.122197 0.0333998 0.0420573 0.0256257 0.174692 0.0607353 0.134782 0.655012 0.546629 0.513518 0.455666 0.411825 0.705591 0.309332 0.899969 0.16708 0.525868 1.45735 0.339074 0.827267 0.385469 0.149524 0.35639 0.657899 0.954376 0.299958 0.965227 1.05372 0.699313 0.366904 0.976958 0.835644 0.650862 0.716837 0.841743 0.95006 1.05977 3.14997 1.95955 1.68847 3.00122 0.613932 0.839166 0.145365 1.58818 0.921547 1.10005 1.06465 0.507065 0.268124 2.61518 1.40155 0.130576 2.33691 1.99833 0.345518 0.180537 1.67904 0.117594 1.83472 2.151 0.220854 0.836492 0.501682 0.46662 2.65832 2.00957 0.328524 0.17383 0.132283 2.69274 0.292525 1.0701 1.78024 2.19019 2.52713 2.35731 2.59246 2.85245 2.09899 0.261319 1.02571 1.32778 2.05225 1.84042 0.0289923 1.68411 0.0132869 1.95927 0.0184153 0.042069 0.0102297 0.092948 0.120949 0.201063 0.0142137 0.0510105 0.0108166 2.52271 2.49984 1.46287 1.56753 3.84247 1.41072 0.0124091 1.08845 0.265549 0.423498 1.21288 1.36006 0.857454 2.54404 1.71372 2.9436 4.16448 3.07729 2.78697 3.00535 0.973654 1.73296 1.80794 1.82183 2.27365 2.26809 1.62802 1.71983 0.946766 0.0272142 1.82316 0.783687 1.55515 1.271 1.02394 0.0403169 1.59818 1.45213 2.30904 0.0179194 0.995449 1.04558 1.07187 1.9964 0.220431 1.17873 1.35655 0.614293 1.60243 1.67616 1.02635 1.36489 2.44779 0.78869 0.0352771 3.84997 2.28856 2.19559 0.0235089 4.38736 1.40921 0.113289 0.697975 2.36634 0.01744 1.39288 0.0275199 1.3347 0.0103888 0.830852 0.48669 0.0103822 0.0092205 2.60381 1.22914 3.64907 3.07802 1.76286 1.43811 1.55715 0.00732288 0.0054497 0.595532 0.00816761 1.03461 0.288979 0.901479 0.464593 1.47893 1.34885 0.912225 1.33722 1.74177 1.33959 1.58871 0.354098 0.412534 2.8749 1.68737 0.0306508 2.283 1.38642 0.0150348 0.0164532 0.537295 0.00668117 0.0167293 1.20902 3.40543 0.0764644 0.700388 0.0913302 0.044793 0.851075 0.0886513 0.622001 1.63231 1.04769 0.0253189 0.57844 0.905848 1.17349 0.85843 0.956104 0.0435173 0.757094 1.30388 1.15141 0.0224895 0.0134808 0.0204411 0.629256 0.859427 2.23898 0.019958 1.23824 0.0458307 0.804286 1.29513 0.556708 1.02188 0.344653 0.503354 1.61761 0.52113 0.721766 0.317403 0.124689 0.795868 0.395474 0.969702 0.569663 0.880152 0.0131439 0.27173 0.260853 0.0646022 0.0383361 0.0928654 0.480593 1.37087 2.42508 0.0353549 0.0178795 0.0216505 0.0269097 1.31862 0.0408451 0.0102385 0.035534 0.0139443 0.0360596 0.51019 0.0235049 0.0152453 0.0235811 0.0111854 0.0188883 0.0126526 0.0164027 0.0360151 0.104907 0.0201471 1.16303 0.016392 1.44974 1.90674 1.10217 1.43903 0.015784 0.786556 0.0437398 0.052596 0.0990431 0.715038 0.474741 0.0189733 1.46215 0.69009 1.07188 0.660481 0.0204224 0.327188 0.0214675 0.0156164 0.0154073 0.0251155 2.11114 0.0202335 2.52795 0.689302 0.0374269 0.022822 0.016762 1.23337 1.12384 1.99681 0.0212059 0.0180442 0.0249882 1.9638 0.0254086 1.37741 1.33018 1.12714 1.63654 1.41205 0.868937 1.12181 1.39282 1.44215 0.235609 1.36153 1.68473 1.3889 1.65404 1.99724 0.570284 0.61882 1.97138 0.0244246 0.220074 0.644922 2.13918 1.18781 0.912441 0.599883 0.020952 0.786119 1.48673 0.0427493 1.54339 0.0114916 1.31428 1.54863 0.924455 1.7577 1.59404 1.17942 1.79579 1.04903 1.72078 0.842625 1.18817 1.05256 1.64919 1.07417 1.38006 0.849007 1.79817 1.24548 1.11585 0.79299 2.02725 0.868751 0.687971 0.969049 1.153 1.24828 2.36702 1.30662 1.59263 0.836652 1.49537 1.76175 1.67172 0.232485 0.40506 0.442951 0.00627164 0.00371852 0.00337832 0.00406963 0.239696 0.00404525 0.795537 0.00187376 0.00183177 1.23541 0.00491336 0.804986 0.00895575 0.00318752 0.314162 1.04022 0.128304 0.326743 0.00781512 0.597988 0.73258 1.21065 0.00243565 0.49401 0.226046 1.88059 0.298681 1.24671 0.273116 0.00814823 0.0367431 0.0744219 0.222814 0.0678683 0.614673 0.284462 0.130223 0.00675938 0.00644256 0.0109246 0.133571 0.0615003 0.162564 0.192225 0.000630818 0.407901 0.156544 0.20128 0.171042 0.2241 0.0125287 0.461174 0.0171044 0.00839701 0.176626 2.40126 0.149595 0.170448 0.123253 0.134537 0.25491 0.188205 1.71707 0.00111456 0.0340798 0.197688 0.184302 0.0674307 1.02866 1.39115 2.46374 0.332437 0.107026 0.0090297 1.62523 0.000461355 0.318919 0.010029 1.10864 0.00153357 0.0013648 0.248113 0.00181844 0.0996134 0.261405 0.0212495 0.15285 0.268548 0.00164878 0.298696 0.000406453 0.254839 0.765223 0.00124287 0.0330628 0.103633 0.0341795 0.00167884 0.466349 0.293375 0.661297 0.0232016 0.192395 0.15229 0.204926 0.0470134 0.0236159 0.230067 0.0153268 0.535711 0.86309 0.060521 0.0197086 0.0216951 0.0395561 0.0344812 0.6945 0.0619838 0.28945 0.163412 0.0999936 0.0228217 0.0497777 0.689413 0.00785733 0.293663 0.590357 0.0309219 0.7032 0.251024 0.0464597 0.0625304 0.153192 0.310551 0.0421784 1.56159 0.451542 0.38572 0.0196744 2.20801 0.0828898 0.00210968 0.000310912 0.00639263 0.0784759 0.100681 0.0800144 0.00160027 0.627967 1.32143 0.0003439 0.0597866 0.20179 0.020504 1.68128 0.236429 0.897762 0.232882 0.0926585 0.12037 1.23925 0.0318421 0.0295474 0.181744 0.227956 0.224952 0.649222 0.0152371 0.250369 1.4964 0.24477 0.00386754 0.00800634 1.82479 0.00702308 0.0241288 0.00660062 1.07234 0.482494 1.41321 0.156258 0.309185 0.0261388 0.989861 0.866179 0.0568057 0.181485 0.0408693 0.073246 0.147913 0.194448 0.139148 0.00458936 0.390304 0.646213 0.0922235 0.0365581 0.0102384 0.0308775 0.018986 0.468019 0.0208995 0.0575602 0.0194204 0.0343315 0.0159736 0.101649 0.804155 0.193837 0.658812 0.0209643 0.0217092 0.226106 0.0258141 0.392592 0.0432566 0.00134364 0.217542 0.706733 0.130821 0.0299306 0.000301709 0.673571 0.227097 0.529475 0.154207 0.0853661 0.0158727 0.073947 0.404459 0.938491 0.0471419 0.0441512 0.317972 0.0554954 0.08806 0.530241 1.32163 0.781612 0.102213 0.24039 0.0800412 0.475342 0.0162121 1.22797 0.0211555 0.28887 1.00454 0.00542965 0.0800505 0.788195 0.548768 0.414078 0.210505 0.000181302 0.100817 0.