# vtk DataFile Version 5.1
vtk output
ASCII

DATASET UNSTRUCTURED_GRID
POINTS 931 float
0 0 0
0.166667 0 0
0.333333 0 0
0.5 0 0
0.666667 0 0
0.833333 0 0
1 0 0
1.16667 0 0
1.33333 0 0
1.5 0 0
1.66667 0 0
1.83333 0 0
2 0 0
2.16667 0 0
2.33333 0 0
2.5 0 0
2.66667 0 0
2.83333 0 0
3 0 0
0 0.166667 0
0.166667 0.166667 0
0.333333 0.166667 0
0.5 0.166667 0
0.666667 0.166667 0
0.833333 0.166667 0
1 0.166667 0
1.16667 0.166667 0
1.33333 0.166667 0
1.5 0.166667 0
1.66667 0.166667 0
1.83333 0.166667 0
2 0.166667 0
2.16667 0.166667 0
2.33333 0.166667 0
2.5 0.166667 0
2.66667 0.166667 0
2.83333 0.166667 0
3 0.166667 0
0 0.333333 0
0.166667 0.333333 0
0.333333 0.333333 0
0.5 0.333333 0
0.666667 0.333333 0
0.833333 0.333333 0
1 0.333333 0
1.16667 0.333333 0
1.33333 0.333333 0
1.5 0.333333 0
1.66667 0.333333 0
1.83333 0.333333 0
2 0.333333 0
2.16667 0.333333 0
2.33333 0.333333 0
2.5 0.333333 0
2.66667 0.333333 0
2.83333 0.333333 0
3 0.333333 0
0 0.5 0
0.166667 0.5 0
0.333333 0.5 0
0.5 0.5 0
0.666667 0.5 0
0.833333 0.5 0
1 0.5 0
1.16667 0.5 0
1.33333 0.5 0
1.5 0.5 0
1.66667 0.5 0
1.83333 0.5 0
2 0.5 0
2.16667 0.5 0
2.33333 0.5 0
2.5 0.5 0
2.66667 0.5 0
2.83333 0.5 0
3 0.5 0
0 0.666667 0
0.166667 0.666667 0
0.333333 0.666667 0
0.5 0.666667 0
0.666667 0.666667 0
0.833333 0.666667 0
1 0.666667 0
1.16667 0.666667 0
1.33333 0.666667 0
1.5 0.666667 0
1.66667 0.666667 0
1.83333 0.666667 0
2 0.666667 0
2.16667 0.666667 0
2.33333 0.666667 0
2.5 0.666667 0
2.66667 0.666667 0
2.83333 0.666667 0
3 0.666667 0
0 0.833333 0
0.166667 0.833333 0
0.333333 0.833333 0
0.5 0.833333 0
0.666667 0.833333 0
0.833333 0.833333 0
1 0.833333 0
1.16667 0.833333 0
1.33333 0.833333 0
1.5 0.833333 0
1.66667 0.833333 0
1.83333 0.833333 0
2 0.833333 0
2.16667 0.833333 0
2.33333 0.833333 0
2.5 0.833333 0
2.66667 0.833333 0
2.83333 0.833333 0
3 0.833333 0
0 1 0
0.166667 1 0
0.333333 1 0
0.5 1 0
0.666667 1 0
0.833333 1 0
1 1 0
1.16667 1 0
1.33333 1 0
1.5 1 0
1.66667 1 0
1.83333 1 0
2 1 0
2.16667 1 0
2.33333 1 0
2.5 1 0
2.66667 1 0
2.83333 1 0
3 1 0
0 0 0.166667
0.166667 0 0.166667
0.333333 0 0.166667
0.5 0 0.166667
0.666667 0 0.166667
0.833333 0 0.166667
1 0 0.166667
1.16667 0 0.166667
1.33333 0 0.166667
1.5 0 0.166667
1.66667 0 0.166667
1.83333 0 0.166667
2 0 0.166667
2.16667 0 0.166667
2.33333 0 0.166667
2.5 0 0.166667
2.66667 0 0.166667
2.83333 0 0.166667
3 0 0.166667
0 0.166667 0.166667
0.166667 0.166667 0.166667
0.333333 0.166667 0.166667
0.5 0.166667 0.166667
0.666667 0.166667 0.166667
0.833333 0.166667 0.166667
1 0.166667 0.166667
1.16667 0.166667 0.166667
1.33333 0.166667 0.166667
1.5 0.166667 0.166667
1.66667 0.166667 0.166667
1.83333 0.166667 0.166667
2 0.166667 0.166667
2.16667 0.166667 0.166667
2.33333 0.166667 0.166667
2.5 0.166667 0.166667
2.66667 0.166667 0.166667
2.83333 0.166667 0.166667
3 0.166667 0.166667
0 0.333333 0.166667
0.166667 0.333333 0.166667
0.333333 0.333333 0.166667
0.5 0.333333 0.166667
0.666667 0.333333 0.166667
0.833333 0.333333 0.166667
1 0.333333 0.166667
1.16667 0.333333 0.166667
1.33333 0.333333 0.166667
1.5 0.333333 0.166667
1.66667 0.333333 0.166667
1.83333 0.333333 0.166667
2 0.333333 0.166667
2.16667 0.333333 0.166667
2.33333 0.333333 0.166667
2.5 0.333333 0.166667
2.66667 0.333333 0.166667
2.83333 0.333333 0.166667
3 0.333333 0.166667
0 0.5 0.166667
0.166667 0.5 0.166667
0.333333 0.5 0.166667
0.5 0.5 0.166667
0.666667 0.5 0.166667
0.833333 0.5 0.166667
1 0.5 0.166667
1.16667 0.5 0.166667
1.33333 0.5 0.166667
1.5 0.5 0.166667
1.66667 0.5 0.166667
1.83333 0.5 0.166667
2 0.5 0.166667
2.16667 0.5 0.166667
2.33333 0.5 0.166667
2.5 0.5 0.166667
2.66667 0.5 0.166667
2.83333 0.5 0.166667
3 0.5 0.166667
0 0.666667 0.166667
0.166667 0.666667 0.166667
0.333333 0.666667 0.166667
0.5 0.666667 0.166667
0.666667 0.666667 0.166667
0.833333 0.666667 0.166667
1 0.666667 0.166667
1.16667 0.666667 0.166667
1.33333 0.666667 0.166667
1.5 0.666667 0.166667
1.66667 0.666667 0.166667
1.83333 0.666667 0.166667
2 0.666667 0.166667
2.16667 0.666667 0.166667
2.33333 0.666667 0.166667
2.5 0.666667 0.166667
2.66667 0.666667 0.166667
2.83333 0.666667 0.166667
3 0.666667 0.166667
0 0.833333 0.166667
0.166667 0.833333 0.166667
0.333333 0.833333 0.166667
0.5 0.833333 0.166667
0.666667 0.833333 0.166667
0.833333 0.833333 0.166667
1 0.833333 0.166667
1.16667 0.833333 0.166667
1.33333 0.833333 0.166667
1.5 0.833333 0.166667
1.66667 0.833333 0.166667
1.83333 0.833333 0.166667
2 0.833333 0.166667
2.16667 0.833333 0.166667
2.33333 0.833333 0.166667
2.5 0.833333 0.166667
2.66667 0.833333 0.166667
2.83333 0.833333 0.166667
3 0.833333 0.166667
0 1 0.166667
0.166667 1 0.166667
0.333333 1 0.166667
0.5 1 0.166667
0.666667 1 0.166667
0.833333 1 0.166667
1 1 0.166667
1.16667 1 0.166667
1.33333 1 0.166667
1.5 1 0.166667
1.66667 1 0.166667
1.83333 1 0.166667
2 1 0.166667
2.16667 1 0.166667
2.33333 1 0.166667
2.5 1 0.166667
2.66667 1 0.166667
2.83333 1 0.166667
3 1 0.166667
0 0 0.333333
0.166667 0 0.333333
0.333333 0 0.333333
0.5 0 0.333333
0.666667 0 0.333333
0.833333 0 0.333333
1 0 0.333333
1.16667 0 0.333333
1.33333 0 0.333333
1.5 0 0.333333
1.66667 0 0.333333
1.83333 0 0.333333
2 0 0.333333
2.16667 0 0.333333
2.33333 0 0.333333
2.5 0 0.333333
2.66667 0 0.333333
2.83333 0 0.333333
3 0 0.333333
0 0.166667 0.333333
0.166667 0.166667 0.333333
0.333333 0.166667 0.333333
0.5 0.166667 0.333333
0.666667 0.166667 0.333333
0.833333 0.166667 0.333333
1 0.166667 0.333333
1.16667 0.166667 0.333333
1.33333 0.166667 0.333333
1.5 0.166667 0.333333
1.66667 0.166667 0.333333
1.83333 0.166667 0.333333
2 0.166667 0.333333
2.16667 0.166667 0.333333
2.33333 0.166667 0.333333
2.5 0.166667 0.333333
2.66667 0.166667 0.333333
2.83333 0.166667 0.333333
3 0.166667 0.333333
0 0.333333 0.333333
0.166667 0.333333 0.333333
0.333333 0.333333 0.333333
0.5 0.333333 0.333333
0.666667 0.333333 0.333333
0.833333 0.333333 0.333333
1 0.333333 0.333333
1.16667 0.333333 0.333333
1.33333 0.333333 0.333333
1.5 0.333333 0.333333
1.66667 0.333333 0.333333
1.83333 0.333333 0.333333
2 0.333333 0.333333
2.16667 0.333333 0.333333
2.33333 0.333333 0.333333
2.5 0.333333 0.333333
2.66667 0.333333 0.333333
2.83333 0.333333 0.333333
3 0.333333 0.333333
0 0.5 0.333333
0.166667 0.5 0.333333
0.333333 0.5 0.333333
0.5 0.5 0.333333
0.666667 0.5 0.333333
0.833333 0.5 0.333333
1 0.5 0.333333
1.16667 0.5 0.333333
1.33333 0.5 0.333333
1.5 0.5 0.333333
1.66667 0.5 0.333333
1.83333 0.5 0.333333
2 0.5 0.333333
2.16667 0.5 0.333333
2.33333 0.5 0.333333
2.5 0.5 0.333333
2.66667 0.5 0.333333
2.83333 0.5 0.333333
3 0.5 0.333333
0 0.666667 0.333333
0.166667 0.666667 0.333333
0.333333 0.666667 0.333333
0.5 0.666667 0.333333
0.666667 0.666667 0.333333
0.833333 0.666667 0.333333
1 0.666667 0.333333
1.16667 0.666667 0.333333
1.33333 0.666667 0.333333
1.5 0.666667 0.333333
1.66667 0.666667 0.333333
1.83333 0.666667 0.333333
2 0.666667 0.333333
2.16667 0.666667 0.333333
2.33333 0.666667 0.333333
2.5 0.666667 0.333333
2.66667 0.666667 0.333333
2.83333 0.666667 0.333333
3 0.666667 0.333333
0 0.833333 0.333333
0.166667 0.833333 0.333333
0.333333 0.833333 0.333333
0.5 0.833333 0.333333
0.666667 0.833333 0.333333
0.833333 0.833333 0.333333
1 0.833333 0.333333
1.16667 0.833333 0.333333
1.33333 0.833333 0.333333
1.5 0.833333 0.333333
1.66667 0.833333 0.333333
1.83333 0.833333 0.333333
2 0.833333 0.333333
2.16667 0.833333 0.333333
2.33333 0.833333 0.333333
2.5 0.833333 0.333333
2.66667 0.833333 0.333333
2.83333 0.833333 0.333333
3 0.833333 0.333333
0 1 0.333333
0.166667 1 0.333333
0.333333 1 0.333333
0.5 1 0.333333
0.666667 1 0.333333
0.833333 1 0.333333
1 1 0.333333
1.16667 1 0.333333
1.33333 1 0.333333
1.5 1 0.333333
1.66667 1 0.333333
1.83333 1 0.333333
2 1 0.333333
2.16667 1 0.333333
2.33333 1 0.333333
2.5 1 0.333333
2.66667 1 0.333333
2.83333 1 0.333333
3 1 0.333333
0 0 0.5
0.166667 0 0.5
0.333333 0 0.5
0.5 0 0.5
0.666667 0 0.5
0.833333 0 0.5
1 0 0.5
1.16667 0 0.5
1.33333 0 0.5
1.5 0 0.5
1.66667 0 0.5
1.83333 0 0.5
2 0 0.5
2.16667 0 0.5
2.33333 0 0.5
2.5 0 0.5
2.66667 0 0.5
2.83333 0 0.5
3 0 0.5
0 0.166667 0.5
0.166667 0.166667 0.5
0.333333 0.166667 0.5
0.5 0.166667 0.5
0.666667 0.166667 0.5
0.833333 0.166667 0.5
1 0.166667 0.5
1.16667 0.166667 0.5
1.33333 0.166667 0.5
1.5 0.166667 0.5
1.66667 0.166667 0.5
1.83333 0.166667 0.5
2 0.166667 0.5
2.16667 0.166667 0.5
2.33333 0.166667 0.5
2.5 0.166667 0.5
2.66667 0.166667 0.5
2.83333 0.166667 0.5
3 0.166667 0.5
0 0.333333 0.5
0.166667 0.333333 0.5
0.333333 0.333333 0.5
0.5 0.333333 0.5
0.666667 0.333333 0.5
0.833333 0.333333 0.5
1 0.333333 0.5
1.16667 0.333333 0.5
1.33333 0.333333 0.5
1.5 0.333333 0.5
1.66667 0.333333 0.5
1.83333 0.333333 0.5
2 0.333333 0.5
2.16667 0.333333 0.5
2.33333 0.333333 0.5
2.5 0.333333 0.5
2.66667 0.333333 0.5
2.83333 0.333333 0.5
3 0.333333 0.5
0 0.5 0.5
0.166667 0.5 0.5
0.333333 0.5 0.5
0.5 0.5 0.5
0.666667 0.5 0.5
0.833333 0.5 0.5
1 0.5 0.5
1.16667 0.5 0.5
1.33333 0.5 0.5
1.5 0.5 0.5
1.66667 0.5 0.5
1.83333 0.5 0.5
2 0.5 0.5
2.16667 0.5 0.5
2.33333 0.5 0.5
2.5 0.5 0.5
2.66667 0.5 0.5
2.83333 0.5 0.5
3 0.5 0.5
0 0.666667 0.5
0.166667 0.666667 0.5
0.333333 0.666667 0.5
0.5 0.666667 0.5
0.666667 0.666667 0.5
0.833333 0.666667 0.5
1 0.666667 0.5
1.16667 0.666667 0.5
1.33333 0.666667 0.5
1.5 0.666667 0.5
1.66667 0.666667 0.5
1.83333 0.666667 0.5
2 0.666667 0.5
2.16667 0.666667 0.5
2.33333 0.666667 0.5
2.5 0.666667 0.5
2.66667 0.666667 0.5
2.83333 0.666667 0.5
3 0.666667 0.5
0 0.833333 0.5
0.166667 0.833333 0.5
0.333333 0.833333 0.5
0.5 0.833333 0.5
0.666667 0.833333 0.5
0.833333 0.833333 0.5
1 0.833333 0.5
1.16667 0.833333 0.5
1.33333 0.833333 0.5
1.5 0.833333 0.5
1.66667 0.833333 0.5
1.83333 0.833333 0.5
2 0.833333 0.5
2.16667 0.833333 0.5
2.33333 0.833333 0.5
2.5 0.833333 0.5
2.66667 0.833333 0.5
2.83333 0.833333 0.5
3 0.833333 0.5
0 1 0.5
0.166667 1 0.5
0.333333 1 0.5
0.5 1 0.5
0.666667 1 0.5
0.833333 1 0.5
1 1 0.5
1.16667 1 0.5
1.33333 1 0.5
1.5 1 0.5
1.66667 1 0.5
1.83333 1 0.5
2 1 0.5
2.16667 1 0.5
2.33333 1 0.5
2.5 1 0.5
2.66667 1 0.5
2.83333 1 0.5
3 1 0.5
0 0 0.666667
[...]
POINT_DATA 931
SCALARS weights float 1
LOOKUP_TABLE default
0.578704 1.15741 1.15741 1.15741 1.15741 1.15741 1.15741 1.15741 1.15741 1.15741 1.15741 1.15741 1.15741 1.15741 1.15741 1.15741 1.15741 1.15741 0.578703 1.15741 2.31482 2.31482 2.31482 2.31482 2.31481 2.31482 2.31482 2.31481 2.31482 2.31482 2.31481 2.31482 2.31482 2.31481 2.31482 2.31482 2.31481 1.15741 1.15741 2.31482 2.31482 2.31482 2.31482 2.31481 2.31482 2.31482 2.31481 2.31482 2.31482 2.31481 2.31482 2.31482 2.31481 2.31482 2.31482 2.31481 1.15741 1.15741 2.31482 2.31482 2.31482 2.31482 2.31481 2.31481 2.31482 2.31481 2.31482 2.31482 2.31481 2.31482 2.31482 2.31481 2.31482 2.31482 2.31481 1.15741 1.15741 2.31482 2.31482 2.31482 2.31482 2.31482 2.31482 2.31482 2.31482 2.31482 2.31482 2.31481 2.31482 2.31482 2.31481 2.31482 2.31482 2.31481 1.15741 1.15741 2.31481 2.31481 2.31482 2.31482 2.31481 2.31481 2.31482 2.31481 2.31482 2.31482 2.31481 2.31482 2.31482 2.31481 2.31481 2.31482 2.31481 1.15741 0.578704 1.15741 1.15741 1.15741 1.15741 1.15741 1.15741 1.15741 1.15741 1.15741 1.15741 1.15741 1.15741 1.15741 1.15741 1.15741 1.15741 1.15741 0.578703 1.15741 2.31482 2.31482 2.31482 2.31482 2.31481 2.31482 2.31482 2.31481 2.31482 2.31482 2.31481 2.31482 2.31482 2.31481 2.31482 2.31482 2.31481 1.15741 2.31482 4.62963 4.62963 4.62963 4.62963 4.62963 4.62963 4.62963 4.62963 4.62963 4.62963 4.62963 4.62963 4.62963 4.62963 4.62963 4.62963 4.62963 2.31481 2.31482 4.62963 4.62963 4.62963 4.62963 4.62963 4.62963 4.62963 4.62963 4.62963 4.62963 4.62963 4.62963 4.62963 4.62963 4.62963 4.62963 4.62963 2.31481 2.31482 4.62963 4.62963 4.62963 4.62963 4.62963 4.62963 4.62963 4.62963 4.62963 4.62963 4.62963 4.62963 4.62963 4.62963 4.62963 4.62963 4.62963 2.31481 2.31482 4.62963 4.62963 4.62963 4.62963 4.62963 4.62963 4.62963 4.62963 4.62963 4.62963 4.62963 4.62963 4.62963 4.62963 4.62963 4.62963 4.62963 2.31481 2.31481 4.62963 4.62963 4.62963 4.62963 4.62963 4.62963 4.62963 4.62963 4.62963 4.62963 4.62963 4.62963 4.62963 4.62963 4.62963 4.62963 4.62963 2.31481 1.15741 2.31481 2.31481 2.31481 2.31481 2.31481 2.31481 2.31481 2.31481 2.31481 2.31481 2.31481 2.31481 2.31482 2.31481 2.31481 2.31482 2.31481 1.15741 1.15741 2.31482 2.31482 2.31482 2.31482 2.31482 2.31482 2.31482 2.31481 2.31482 2.31482 2.31481 2.31482 2.31482 2.31481 2.31482 2.31482 2.31481 1.15741 2.31482 4.62963 4.62963 4.62963 4.62963 4.62963 4.62963 4.62963 4.62963 4.62963 4.62963 4.62963 4.62963 4.62963 4.62963 4.62963 4.62963 4.62963 2.31481 2.31482 4.62963 4.62963 4.62963 4.62963 4.62963 4.62963 4.62963 4.62963 4.62963 4.62963 4.62963 4.62963 4.62963 4.62963 4.62963 4.62963 4.62963 2.31481 2.31482 4.62963 4.62963 4.62963 4.62963 4.62963 4.62963 4.62963 4.62963 4.62963 4.62963 4.62963 4.62963 4.62963 4.62963 4.62963 4.62963 4.62963 2.31481 2.31482 4.62963 4.62963 4.62963 4.62963 4.62963 4.62963 4.62963 4.62963 4.62963 4.62963 4.62963 4.62963 4.62963 4.62963 4.62963 4.62963 4.62963 2.31481 2.31482 4.62963 4.62963 4.62963 4.62963 4.62963 4.62963 4.62963 4.62963 4.62963 4.62963 4.62963 4.62963 4.62963 4.62963 4.62963 4.62963 4.62963 2.31481 1.15741 2.31481 2.31481 2.31481 2.31481 2.31481 2.31481 2.31481 2.31481 2.31481 2.31481 2.31481 2.31481 2.31482 2.31481 2.31481 2.31482 2.31481 1.15741 1.15741 2.31482 2.31482 2.31482 2.31482 2.31481 2.31482 2.31482 2.31481 2.31482 2.31482 2.31481 2.31482 2.31482 2.31481 2.31482 2.31482 2.31481 1.15741 2.31482 4.62963 4.62963 4.62963 4.62963 4.62963 4.62963 4.62963 4.62963 4.62963 4.62963 4.62963 4.62963 4.62963 4.62963 4.62963 4.62963 4.62963 2.31481 2.31482 4.62963 4.62963 4.62963 4.62963 4.62963 4.62963 4.62963 4.62963 4.62963 4.62963 4.62963 4.62963 4.62963 4.62963 4.62963 4.62963 4.62963 2.31481 2.31482 4.62963 4.62963 4.62963 4.62963 4.62963 4.62963 4.62963 4.62963 4.62963 4.62963 4.62963 4.62963 4.62963 4.62963 4.62963 4.62963 4.62963 2.31481 2.31482 4.62963 4.62963 4.62963 4.62963 4.62963 4.62963 4.62963 4.62963 4.62963 4.62963 4.62963 4.62963 4.62963 4.62963 4.62963 4.62963 4.62963 2.31481 2.31481 4.62963 4.62963 4.62963 4.62963 4.62963 4.62963 4.62963 4.62963 4.62963 4.62963 4.62963 4.62963 4.62963 4.62963 4.62963 4.62963 4.62963 2.31481 1.15741 2.31481 2.31481 2.31481 2.31481 2.31481 2.31481 2.31481 2.31481 2.31481 2.31481 2.31481 2.31481 2.31482 2.31481 2.31481 2.31482 2.31481 1.15741 1.15741 2.31482 2.31482 2.31482 2.31482 2.31482 2.31482 2.31482 2.31481 2.31482 2.31482 2.31481 2.31482 2.31482 2.31481 2.31482 2.31482 2.31481 1.15741 2.31482 4.62963 4.62963 4.62963 4.62963 4.62963 4.62963 4.62963 4.62963 4.62963 4.62963 4.62963 4.62963 4.62963 4.62963 4.62963 4.62963 4.62963 2.31481 2.31482 4.62963 4.62963 4.62963 4.62963 4.62963 4.62963 4.62963 4.62963 4.62963 4.62963 4.62963 4.62963 4.62963 4.62963 4.62963 4.62963 4.62963 2.31481 2.31482 4.62963 4.62963 4.62963 4.62963 4.62963 4.62963 4.62963 4.62963 4.62963 4.62963 4.62963 4.62963 4.62963 4.62963 4.62963 4.62963 4.62963 2.31481 2.31482 4.62963 4.62963 4.62963 4.62963 4.62963 4.62963 4.62963 4.62963 4.62963 4.62963 4.62963 4.62963 4.62963 4.62963 4.62963 4.62963 4.62963 2.31481 2.31482 4.62963 4.62963 4.62963 4.62963 4.62963 4.62963 4.62963 4.62963 4.62963 4.62963 4.62963 4.62963 4.62963 4.62963 4.62963 4.62963 4.62963 2.31481 1.15741 2.31481 2.31481 2.31481 2.31481 2.31481 2.31481 2.31482 2.31481 2.31481 2.31482 2.31481 2.31481 2.31482 2.31481 2.31481 2.31482 2.31481 1.15741 1.15741 2.31481 2.31481 2.31482 2.31482 2.31481 2.31481 2.31482 2.31481 2.31482 2.31482 2.31481 2.31482 2.31482 2.31481 2.31481 2.31482 2.31481 1.15741 2.31481 4.62963 4.62963 4.62963 4.62963 4.62963 4.62963 4.62963 4.62963 4.62963 4.62963 4.62963 4.62963 4.62963 4.62963 4.62963 4.62963 4.62963 2.31481 2.31481 4.62963 4.62963 4.62963 4.62963 4.62963 4.62963 4.62963 4.62963 4.62963 4.62963 4.62963 4.62963 4.62963 4.62963 4.62963 4.62963 4.62963 2.31481 2.31481 4.62963 4.62963 4.62963 4.62963 4.62963 4.62963 4.62963 4.62963 4.62963 4.62963 4.62963 4.62963 4.62963 4.62963 4.62963 4.62963 4.62963 2.31481 2.31482 4.62963 4.62963 4.62963 4.62963 4.62963 4.62963 4.62963 4.62963 4.62963 4.62963 4.62963 4.62963 4.62963 4.62963 4.62963 4.62963 4.62963 2.31481 2.31481 4.62963 4.62963 4.62963 4.62963 4.62963 4.62963 4.62963 4.62963 4.62963 4.62963 4.62963 4.62963 4.62963 4.62963 4.62963 4.62963 4.62963 2.31481 1.15741 2.31481 2.31481 2.31481 2.31481 2.31481 2.31481 2.31481 2.31481 2.31481 2.31481 2.31481 2.31481 2.31482 2.31481 2.31481 2.31482 2.31481 1.15741 0.578704 1.15741 1.15741 1.15741 1.15741 1.15741 1.15741 1.15741 1.15741 1.15741 1.15741 1.15741 1.15741 1.15741 1.15741 1.15741 1.15741 1.15741 0.578703 1.15741 2.31481 2.31481 2.31481 2.31481 2.31481 2.31481 2.31481 2.31481 2.31481 2.31481 2.31481 2.31481 2.31482 2.31481 2.31481 2.31482 2.31481 1.15741 1.15741 2.31481 2.31481 2.31481 2.31481 2.31481 2.31481 2.31481 2.31481 2.31481 2.31481 2.31481 2.31481 2.31482 2.31481 2.31481 2.31482 2.31481 1.15741 1.15741 2.31481 2.31481 2.31481 2.31481 2.31481 2.31481 2.31481 2.31481 2.31481 2.31481 2.31481 2.31481 2.31482 2.31481 2.31481 2.31482 2.31481 1.15741 1.15741 2.31481 2.31481 2.31481 2.31481 2.31481 2.31481 2.31482 2.31481 2.31481 2.31481 2.31481 2.31481 2.31482 2.31481 2.31481 2.31482 2.31481 1.15741 1.15741 2.31481 2.31481 2.31481 2.31481 2.31481 2.31481 2.31481 2.31481 2.31481 2.31481 2.31481 2.31481 2.31482 2.31481 2.31481 2.31482 2.31481 1.15741 0.578703 1.15741 1.15741 1.15741 1.15741 1.15741 1.15741 1.15741 1.15741 1.15741 1.15741 1.15741 1.15741 1.15741 1.15741 1.15741 1.15741 1.15741 0.578703 
VECTORS u float
0 -2.98023e-07 1  0.00423633 -0.0614459 0.923312  0.00624791 -0.126806 0.814428  0.00441676 -0.174063 0.693128  0.00225604 -0.19792 0.568309  0.000993073 -0.199052 0.443649  0.000449538 -0.178335 0.321669  0.000225544 -0.136623 0.205462  8.07047e-05 -0.0751765 0.0983845  -5.32866e-05 0.00411948 0.00372321  -0.0001688 0.0987805 -0.0755692  -0.000270724 0.205846 -0.136977  -0.000500441 0.322091 -0.178608  -0.00105548 0.444049 -0.199209  -0.00233746 0.568703 -0.19798  -0.00452518 0.693559 -0.174034  -0.00633478 0.814852 -0.126645  -0.00419569 0.923512 -0.0613624  0 1 -2.98023e-07  0 -0.166667 0.833333  -0.0112083 -0.214655 0.755548  -0.0224059 -0.246569 0.662443  -0.0279343 -0.264167 0.56026  -0.0299109 -0.264948 0.454619  -0.0304083 -0.247601 0.350078  -0.0304972 -0.212314 0.250277  -0.0305438 -0.160073 0.158319  -0.0306472 -0.0925156 0.0769817  -0.0307872 -0.0117355 0.00880618  -0.0309892 0.0797062 -0.0441122  -0.0312985 0.178968 -0.0802051  -0.0317481 0.283124 -0.0982994  -0.0323777 0.389021 -0.0978162  -0.0328968 0.49365 -0.0784074  -0.0318534 0.593818 -0.0398416  -0.0259168 0.685744 0.0175953  -0.0120234 0.763998 0.0896188  0 0.833334 0.166666  0 -0.333334 0.666667  -0.00751045 -0.356335 0.580581  -0.0165739 -0.362824 0.495223  -0.0216599 -0.354309 0.407019  -0.0235601 -0.33023 0.319095  -0.0239359 -0.290878 0.235301  -0.0238683 -0.237301 0.159199  -0.0238153 -0.171177 0.0935281  -0.023857 -0.0945507 0.0404985  -0.0239967 -0.00988191 0.0017183  -0.024224 0.0802379 -0.0215641  -0.0244799 0.173025 -0.0285762  -0.0247324 0.265702 -0.0191762  -0.0247366 0.355385 0.00656855  -0.0238724 0.439218 0.0479812  -0.021069 0.514328 0.103625  -0.0151317 0.577956 0.170836  -0.0066328 0.629074 0.246509  0 0.666667 0.333333  0 -0.5 0.5  -0.000598028 -0.494209 0.410119  -0.00140116 -0.472438 0.330048  -0.00104964 -0.436866 0.252994  -0.000309408 -0.387456 0.181177  0.000230014 -0.325621 0.118174  0.000449181 -0.253458 0.0667958  0.000435591 -0.173396 0.0289005  0.00031805 -0.0879551 0.00568384  0.000156403 0.000143707 -0.00210472  1.54972e-06 0.0882382 0.00571535  -0.000119209 0.173596 0.0289311  -0.000116706 0.253617 0.0668375  0.00010252 0.325749 0.118168  0.000648022 0.387563 0.18115  0.00139856 0.436913 0.252945  0.00173473 0.472451 0.329964  0.000822544 0.494208 0.410082  0 0.5 0.5  0 -0.666667 0.333333  0.00689574 -0.629053 0.246615  0.0154581 -0.577877 0.170956  0.0213727 -0.514189 0.10371  0.0241358 -0.439091 0.0480204  0.0249686 -0.355263 0.00659428  0.0249648 -0.265522 -0.0191217  0.0247284 -0.172798 -0.0285433  0.0244875 -0.0799198 -0.0214717  0.0242721 0.010183 0.00184472  0.0241313 0.0948241 0.0405838  0.024094 0.171359 0.0936417  0.0241745 0.237442 0.159319  0.0242217 0.290943 0.235439  0.0238264 0.330281 0.319128  0.0218809 0.354322 0.406993  0.0167451 0.362834 0.495163  0.00756836 0.35631 0.580586  0 0.333334 0.666667  0 -0.833334 0.166666  0.0122213 -0.763848 0.0897725  0.0260929 -0.685592 0.0176298  0.0319743 -0.593603 -0.0397931  0.0330155 -0.493362 -0.0783283  0.0324904 -0.388743 -0.0976955  0.031834 -0.282851 -0.0981623  0.0313789 -0.178674 -0.0800262  0.0311023 -0.0793473 -0.043918  0.0309314 0.0120866 0.00904594  0.0308028 0.0928143 0.077207  0.0306836 0.16028 0.158516  0.0306048 0.212441 0.250486  0.0305145 0.24768 0.350277  0.0300348 0.264952 0.454796  0.0280676 0.264145 0.560387  0.0225275 0.24657 0.662528  0.0113182 0.214777 0.755631  0 0.166667 0.833334  0 -1 -2.98023e-07  0.00424735 -0.92327 -0.0614611  0.00626442 -0.814505 -0.126778  0.00444859 -0.693203 -0.174083  0.00226706 -0.568322 -0.197977  0.000979364 -0.443626 -0.199138  0.000412107 -0.321644 -0.178452  0.000169277 -0.20539 -0.136731  5.04255e-05 -0.0983192 -0.0752953  -6.54459e-05 -0.00367224 0.00401187  -0.000178576 0.0755646 0.0987112  -0.000273466 0.136928 0.205817  -0.000498295 0.178583 0.322047  -0.00106049 0.199196 0.444022  -0.00231409 0.197986 0.56865  -0.00448418 0.174061 0.693429  -0.00632977 0.126729 0.814705  -0.00417233 0.0614347 0.923404  0 2.38419e-07 1  0 0.166666 0.833334  0.0121092 0.0896705 0.763914  0.0259575 0.0175949 0.685578  0.0318419 -0.0398072 0.593591  0.0328991 -0.078305 0.493374  0.0324054 -0.0976578 0.388769  0.0317633 -0.0980771 0.282875  0.0313216 -0.0799081 0.178719  0.0310518 -0.0438188 0.0793907  0.0308731 0.00914346 -0.0120909  0.0307275 0.0773314 -0.0928545  0.0306178 0.1586 -0.160355  0.03054 0.250533 -0.212519  0.0304391 0.35033 -0.247725  0.0299373 0.454852 -0.264995  0.0279341 0.560496 -0.264176  0.0223768 0.662607 -0.246567  0.0111544 0.755623 -0.214687  0 0.833333 -0.166667  0 -1.93715e-07 0.666667  0.000972927 -0.0493139 0.605914  0.00160003 -0.0918426 0.537734  0.00162333 -0.12162 0.460834  0.00132626 -0.13705 0.37898  0.000975013 -0.137699 0.295573  0.000674725 -0.123691 0.213439  0.000431776 -0.0955318 0.135072  0.000228882 -0.0541273 0.0628557  3.12328e-05 -0.000700608 -0.00092946  -0.000151396 0.0630906 -0.0543504  -0.000338316 0.135244 -0.0957771  -0.000572324 0.213597 -0.123888  -0.000887871 0.295743 -0.137824  -0.00126171 0.379124 -0.137147  -0.00157166 0.460961 -0.121662  -0.00154781 0.537784 -0.0918763  -0.000934362 0.60596 -0.0493416  0 0.666667 -1.93715e-07  0 -0.166667 0.5  2.39313e-05 -0.189859 0.442536  -0.00168005 -0.203627 0.381238  -0.00366369 -0.206473 0.316946  -0.00496095 -0.19789 0.252258  -0.00559396 -0.178009 0.189656  -0.00586241 -0.147429 0.131406  -0.00599337 -0.107092 0.0793867  -0.00610864 -0.0582812 0.0352612  -0.00624835 -0.00251278 0.000380352  -0.00643122 0.0584992 -0.0241335  -0.00664508 0.122814 -0.0375387  -0.00681829 0.188554 -0.039469  -0.00684094 0.253677 -0.0297862  -0.0065608 0.316143 -0.00876112  -0.00572443 0.373998 0.0230923  -0.00405717 0.425049 0.0648192  -0.00170112 0.467741 0.114612  0 0.5 0.166667  0 -0.333334 0.333333  0.000794068 -0.329366 0.278351  0.000952959 -0.314843 0.222692  0.00075525 -0.29052 0.169763  0.00059998 -0.257287 0.121526  0.000531197 -0.216086 0.0796566  0.000478268 -0.168191 0.045617  0.000401735 -0.115073 0.0204914  0.000289559 -0.0583796 0.00508505  0.000143766 0.000111818 -7.84397e-05  -2.02656e-06 0.0585935 0.00509675  -0.00011301 0.115246 0.0205004  -0.000203013 0.168316 0.0456169  -0.000272751 0.216183 0.0796274  -0.000375986 0.257367 0.121456  -0.000550747 0.290595 0.169695  -0.000784397 0.31491 0.22262  -0.000701427 0.329346 0.278324  0 0.333333 0.333333  0 -0.5 0.166667  0.00176795 -0.467771 0.114696  0.00421348 -0.42502 0.0649169  0.00596774 -0.373914 0.0231516  0.00684923 -0.316054 -0.00871955  0.00710338 -0.253566 -0.0297871  0.00704002 -0.188426 -0.0394489  0.00687516 -0.122668 -0.0375448  0.00668848 -0.0582834 -0.0241113  0.00652432 0.00274378 0.000438005  0.00638628 0.058508 0.0352887  0.00626206 0.107289 0.0794098  0.00613213 0.147581 0.131431  0.00587773 0.178094 0.189694  0.00522947 0.19798 0.252262  0.0038631 0.206531 0.316947  0.00178218 0.203682 0.381218  -1.33514e-05 0.18984 0.44251  0 0.166667 0.5  0 -0.666667 -2.5332e-07  0.00104779 -0.605912 -0.0492491  0.00169572 -0.537771 -0.091817  0.00172216 -0.460873 -0.121631  0.00141227 -0.378995 -0.137093  0.00103921 -0.295553 -0.137776  0.000717998 -0.213403 -0.123815  0.000479579 -0.135051 -0.0956809  0.000305057 -0.0628542 -0.0542637  0.000145078 0.000957966 -0.000837088  -3.5882e-05 0.0543711 0.0629555  -0.000251174 0.0957538 0.135162  -0.000501752 0.123849 0.213522  -0.000807762 0.137818 0.295639  -0.0011754 0.137145 0.379033  -0.00146556 0.121704 0.4609  -0.00143862 0.0919229 0.537813  -0.00085187 0.0493694 0.605944  0 1.19209e-07 0.666667  0 -0.833333 -0.166667  -0.0111751 -0.755562 -0.214651  -0.0223795 -0.662489 -0.246536  -0.0279234 -0.560336 -0.264179  -0.0299219 -0.454652 -0.264989  -0.0304474 -0.350077 -0.247694  -0.0305406 -0.250253 -0.212427  -0.0305812 -0.158288 -0.160176  -0.0306733 -0.0769889 -0.0926366  -0.0308082 -0.00879914 -0.0118773  -0.030984 0.0441339 0.0796003  -0.0312532 0.0801886 0.178935  -0.0316995 0.098282 0.283092  -0.0323503 0.0977988 0.388982  -0.03284 0.0784094 0.49356  -0.0317652 0.0398552 0.593742  -0.0258665 -0.0175379 0.685747  -0.0120053 -0.0896012 0.763968  0 -0.166666 0.833334  0 0.333333 0.666667  0.0067268 0.246575 0.629009  0.0152119 0.170932 0.577868  0.0211285 0.103715 0.514146  0.0239174 0.048021 0.439094  0.0247654 0.00664277 0.35526  0.0247788 -0.0190513 0.265544  0.0245508 -0.0284331 0.172826  0.0243145 -0.0213387 0.0799393  0.0241253 0.0019703 -0.0102081  0.0239975 0.0407319 -0.0948781  0.0239505 0.0937728 -0.17143  0.0239913 0.159422 -0.237502  0.0240228 0.23548 -0.291017  0.023623 0.3192 -0.330312  0.0217085 0.407092 -0.354368  0.0166013 0.49525 -0.362903  0.00749397 0.580621 -0.356366  0 0.666667 -0.333334  0 0.166667 0.5  0.00171576 0.114678 0.467705  0.004114 0.0648995 0.42499  0.00584996 0.0231768 0.373865  0.00674576 -0.00867699 0.316052  0.00700694 -0.0296896 0.25356  0.00696421 -0.0393236 0.188472  0.00680828 -0.0373852 0.122695  0.00662291 -0.0239366 0.058287  0.00645828 0.000594616 -0.00273934  0.00632274 0.0354498 -0.05852  0.00618577 0.0795743 -0.107292  0.00601745 0.13157 -0.147557  0.00572538 0.189773 -0.178108  0.00506592 0.252319 -0.197962  0.0037179 0.316955 -0.206528  0.00168753 0.381194 -0.203685  -5.34058e-05 0.442508 -0.189895  0 0.5 -0.166667  0 -8.9407e-08 0.333333  0.000207856 -0.0246761 0.304157  0.000565499 -0.0454152 0.269621  0.000725329 -0.0604218 0.230885  0.000705779 -0.0683341 0.189753  0.000624716 -0.0687476 0.14788  0.000512242 -0.0617918 0.106732  0.000386238 -0.047702 0.0675237  0.00025332 -0.026987 0.0314153  0.000105143 -0.000292063 -0.000472784  -3.75509e-05 0.0315764 -0.0271666  -0.000145912 0.0676639 -0.0478494  -0.000243187 0.106875 -0.0619001  -0.000350714 0.148007 -0.0688452  -0.000500679 0.189824 -0.0683794  -0.000585794 0.230947 -0.0605078  -0.000484228 0.269637 -0.0454785  -0.0001719 0.304184 -0.0247244  0 0.333333 -8.9407e-08  0 -0.166667 0.166667  7.89911e-05 -0.164692 0.13987  0.000235528 -0.157688 0.112361  0.000375628 -0.145584 0.0855269  0.000462711 -0.128854 0.0610285  0.000478327 -0.108115 0.0398715  0.000446796 -0.0840907 0.0227785  0.000384569 -0.0574871 0.0101813  0.000300646 -0.029136 0.0024862  0.000207543 9.15527e-05 -8.81255e-05  9.50098e-05 0.0293194 0.0024839  -2.28882e-05 0.0576399 0.0101894  -0.000114083 0.0842002 0.0227759  -0.000182629 0.108209 0.0398691  -0.000194788 0.128931 0.060995  -0.000196457 0.145626 0.0854668  -0.000147343 0.157743 0.112295  -4.36306e-05 0.16467 0.139857  0 0.166667 0.166667  0 -0.333333 -1.49012e-07  0.000234604 -0.304237 -0.0246833  0.000606388 -0.269672 -0.0454172  0.000767648 -0.230944 -0.060445  0.000743508 -0.189789 -0.0683561  0.000654161 -0.147916 -0.0688377  0.00054276 -0.106753 -0.061888  0.00043416 -0.0675197 -0.0478694  0.000308752 -0.0314243 -0.027163  0.000169635 0.000467479 -0.000464231  3.91006e-05 0.0271747 0.0314195  -9.2864e-05 0.0478664 0.0675029  -0.000221252 0.0619296 0.106701  -0.00033164 0.0688767 0.147879  -0.000435829 0.0684311 0.189739  -0.000514746 0.0604817 0.230897  -0.00043726 0.0454578 0.269634  -0.000139475 0.0246558 0.304199  0 5.96046e-08 0.333333  0 -0.5 -0.166667  8.69781e-05 -0.442569 -0.18984  -0.00161564 -0.381295 -0.203624  -0.0036025 -0.316996 -0.206488  -0.00490254 -0.252283 -0.197923  -0.00552893 -0.189663 -0.178068  -0.00578588 -0.131405 -0.147513  -0.00592816 -0.0793726 -0.107223  -0.00605369 -0.0352476 -0.0584592  -0.00619304 -0.000388801 -0.00268632  -0.00635278 0.0241334 0.0583298  -0.00651407 0.0375487 0.122739  -0.00666535 0.0394759 0.188516  -0.00673819 0.0298291 0.253611  -0.00651908 0.00879949 0.31609  -0.00568128 -0.0230666 0.373907  -0.0039854 -0.0647889 0.425036  -0.00162792 -0.114643 0.467782  0 -0.166667 0.5  0 -0.666667 -0.333334  -0.00748095 -0.580629 -0.356297  -0.016522 -0.495235 -0.362818  -0.0216184 -0.407043 -0.35432  -0.0235491 -0.3191 -0.330257  -0.0239477 -0.235306 -0.290928  -0.0239003 -0.159201 -0.237393  -0.0238482 -0.0935043 -0.171289  -0.0238957 -0.0404504 -0.0947046  -0.0240264 -0.00172549 -0.0100492  -0.0241983 0.021533 0.0800998  -0.0244213 0.0285891 0.172965  -0.0246564 0.0192041 0.265685  -0.0246351 -0.00652838 0.355405  -0.023782 -0.0479186 0.439211  -0.0209925 -0.103653 0.514253  -0.0150895 -0.170851 0.57794  -0.00664663 -0.246525 0.629107  0 -0.333333 0.666667  0 0.5 0.5  -0.000794247 0.410114 0.494172  -0.00164151 0.330037 0.472346  -0.0012697 0.252969 0.436798  -0.000529289 0.181185 0.387406  2.2769e-05 0.118201 0.325587  0.000251651 0.0668517 0.2534