# vtk DataFile Version 5.1
vtk output
ASCII

DATASET UNSTRUCTURED_GRID
POINTS 850 float
3 1 0.333333
3 0.333333 1
0.333333 0.666667 1
3 0 0.333333
3 0.333333 0
0.333333 0.333333 1
0 0 0
3 0.333333 0.666667
1.66666 0.666667 1
0.333333 0 1
0 0 1
2 0.666667 1
2.33333 0 1
0.333333 0 0
1.33334 0.666667 1
0.666667 0 1
3 1 0
0.666667 0 0
3 0.333333 0.333333
0 0.666667 1
0.999997 0 0
0.333333 1 1
0 1 1
3 0.666667 0
1.33334 0 0
0 0.333333 1
0.666667 1 0.333333
3 0 0.666667
1.66666 0 0
2.66667 0.666667 1
3 1 0.666667
1.33334 1 0.333333
2 0 0
3 0.666667 0.666667
3 1 1
3 0 1
2.33333 0 0
3 0 0
1.66666 1 0.666667
2.66667 0 1
2.66667 0 0
2.66667 1 0.666667
2 1 0.666667
0 1 0.666667
0 0.333333 0
2.33333 1 0.666667
1.66666 1 0.333333
0.333333 0.333333 0
2 1 0.333333
0.666667 0.333333 0
2.33333 1 0.333333
0.999997 0.333333 0
2.66667 1 0.333333
1.33334 0.333333 0
0.999997 0.666667 1
1.66666 0.333333 0
3 0.666667 0.333333
2 0.333333 0
1.33334 0 1
2.33333 0.333333 0
2.66667 0.333333 0
0 1 0
0 0.666667 0
0 1 0.333333
0.666667 1 0.666667
0.333333 1 0
0.333333 0.666667 0
0.666667 1 0
0.666667 0.666667 0
0.999997 1 0
0.999997 0.666667 0
1.33334 1 0
1.33334 0.666667 0
1.66666 1 0
1.66666 0.666667 0
2 1 0
2 0.666667 0
2.33333 1 0
2.33333 0.666667 0
2.66667 1 0
2.66667 0.666667 0
2.33333 0.666667 1
0 0 0.333333
0.666667 0.666667 1
1.33334 1 0.666667
0.333333 0 0.333333
0.666667 1 1
0.666667 0 0.333333
0.999997 1 1
0.999997 0 0.333333
1.33334 1 1
1.33334 0 0.333333
1.66666 1 1
1.66666 0 0.333333
2 1 1
2 0 0.333333
2.33333 1 1
2.33333 0 0.333333
2.66667 1 1
2.66667 0 0.333333
0.999997 1 0.333333
0 0.333333 0.333333
2 0 1
0.333333 0.333333 0.333333
0.666667 0.333333 0.333333
0.999997 0.333333 0.333333
1.33334 0.333333 0.333333
1.66666 0.333333 0.333333
2 0.333333 0.333333
2.33333 0.333333 0.333333
2.66667 0.333333 0.333333
0 0.666667 0.333333
0.333333 1 0.333333
0.333333 0.666667 0.333333
0.666667 0.666667 0.333333
0.999997 0.666667 0.333333
1.33334 0.666667 0.333333
1.66666 0.666667 0.333333
2 0.666667 0.333333
2.33333 0.666667 0.333333
2.66667 0.666667 0.333333
0 0 0.666667
1.66666 0 1
0.999997 0 1
3 0.666667 1
0.333333 0 0.666667
0.666667 0.333333 1
0.666667 0 0.666667
0.999997 0.333333 1
0.999997 0 0.666667
1.33334 0.333333 1
1.33334 0 0.666667
1.66666 0.333333 1
1.66666 0 0.666667
2 0.333333 1
2 0 0.666667
2.33333 0.333333 1
2.33333 0 0.666667
2.66667 0.333333 1
2.66667 0 0.666667
0.999997 1 0.666667
0 0.333333 0.666667
0.333333 0.333333 0.666667
0.666667 0.333333 0.666667
0.999997 0.333333 0.666667
1.33334 0.333333 0.666667
1.66666 0.333333 0.666667
2 0.333333 0.666667
2.33333 0.333333 0.666667
2.66667 0.333333 0.666667
0 0.666667 0.666667
0.333333 1 0.666667
0.333333 0.666667 0.666667
0.666667 0.666667 0.666667
0.999997 0.666667 0.666667
1.33334 0.666667 0.666667
1.66666 0.666667 0.666667
2 0.666667 0.666667
2.33333 0.666667 0.666667
2.66667 0.666667 0.666667
0 0 0.166666
0 0.166666 0.333333
0 0.166666 0.166666
0.166666 0 0.166666
0.166666 0 0.333333
0.166666 0.166666 0.333333
0 0.333333 0.166666
0 0.166666 0
0.166666 0.333333 0.166666
0.166666 0.333333 0
0.166666 0.166666 0
0.166666 0.333333 0.333333
0.333333 0.333333 0.166666
0.333333 0.166666 0.333333
0.333333 0.166666 0.166666
0.333333 0 0.166666
0.333333 0.166666 0
0.166666 0 0
0.5 0 0
0.5 0 0.166666
0.5 0.166666 0
0.5 0.166666 0.333333
0.5 0.333333 0.333333
0.5 0.333333 0.166666
0.666667 0.333333 0.166666
0.5 0.333333 0
0.666667 0.166666 0.166666
0.666667 0.166666 0
0.666667 0.166666 0.333333
0.666667 0 0.166666
0.5 0 0.333333
0.833332 0 0.166666
0.833332 0 0.333333
0.833332 0.166666 0.333333
0.833332 0.333333 0.166666
0.833332 0.333333 0
0.833332 0.166666 0
0.833332 0.333333 0.333333
0.999997 0.333333 0.166666
0.999997 0.166666 0.333333
0.999997 0.166666 0.166666
0.999997 0 0.166666
0.999997 0.166666 0
0.833332 0 0
1.16667 0 0
1.16667 0 0.166666
1.16667 0.166666 0
1.16667 0.166666 0.333333
1.16667 0.333333 0.333333
1.16667 0.333333 0.166666
1.33334 0.333333 0.166666
1.16667 0.333333 0
1.33334 0.166666 0.166666
1.33334 0.166666 0
1.33334 0.166666 0.333333
1.33334 0 0.166666
1.16667 0 0.333333
1.5 0 0.166666
1.5 0 0.333333
1.5 0.166666 0.333333
1.5 0.333333 0.166666
1.5 0.333333 0
1.5 0.166666 0
1.5 0.333333 0.333333
1.66666 0.333333 0.166666
1.66666 0.166666 0.333333
1.66666 0.166666 0.166666
1.66666 0 0.166666
1.66666 0.166666 0
1.5 0 0
1.83333 0 0
1.83333 0 0.166666
1.83333 0.166666 0
1.83333 0.166666 0.333333
1.83333 0.333333 0.333333
1.83333 0.333333 0.166666
2 0.333333 0.166666
1.83333 0.333333 0
2 0.166666 0.166666
2 0.166666 0
2 0.166666 0.333333
2 0 0.166666
1.83333 0 0.333333
2.16667 0 0.166666
2.16667 0 0.333333
2.16667 0.166666 0.333333
2.16667 0.333333 0.166666
2.16667 0.333333 0
2.16667 0.166666 0
2.16667 0.333333 0.333333
2.33333 0.333333 0.166666
2.33333 0.166666 0.333333
2.33333 0.166666 0.166666
2.33333 0 0.166666
2.33333 0.166666 0
2.16667 0 0
2.5 0 0
2.5 0 0.166666
2.5 0.166666 0
2.5 0.166666 0.333333
2.5 0.333333 0.333333
2.5 0.333333 0.166666
2.66667 0.333333 0.166666
2.5 0.333333 0
2.66667 0.166666 0.166666
2.66667 0.166666 0
2.66667 0.166666 0.333333
2.66667 0 0.166666
2.5 0 0.333333
2.83333 0 0.166666
2.83333 0 0.333333
2.83333 0.166666 0.333333
2.83333 0.333333 0.166666
2.83333 0.333333 0
2.83333 0.166666 0
2.83333 0.333333 0.333333
3 0.333333 0.166666
3 0.166666 0.333333
3 0.166666 0.166666
3 0 0.166666
3 0.166666 0
2.83333 0 0
0 0.5 0.166666
0 0.5 0
0.166666 0.5 0
0 0.5 0.333333
0 0.666667 0.166666
0.166666 0.5 0.333333
0.166666 0.666667 0.333333
0.166666 0.666667 0.166666
0.333333 0.666667 0.166666
0.166666 0.666667 0
0.333333 0.5 0.166666
0.333333 0.5 0
0.333333 0.5 0.333333
0.5 0.5 0.333333
0.5 0.666667 0.166666
0.5 0.666667 0
0.5 0.5 0
0.5 0.666667 0.333333
0.666667 0.666667 0.166666
0.666667 0.5 0.333333
0.666667 0.5 0.166666
0.666667 0.5 0
0.833332 0.5 0
0.833332 0.5 0.333333
0.833332 0.666667 0.333333
0.833332 0.666667 0.166666
0.999997 0.666667 0.166666
0.833332 0.666667 0
0.999997 0.5 0.166666
0.999997 0.5 0
0.999997 0.5 0.333333
1.16667 0.5 0.333333
1.16667 0.666667 0.166666
1.16667 0.666667 0
1.16667 0.5 0
1.16667 0.666667 0.333333
1.33334 0.666667 0.166666
1.33334 0.5 0.333333
1.33334 0.5 0.166666
1.33334 0.5 0
1.5 0.5 0
1.5 0.5 0.333333
1.5 0.666667 0.333333
1.5 0.666667 0.166666
1.66666 0.666667 0.166666
1.5 0.666667 0
1.66666 0.5 0.166666
1.66666 0.5 0
1.66666 0.5 0.333333
1.83333 0.5 0.333333
1.83333 0.666667 0.166666
1.83333 0.666667 0
1.83333 0.5 0
1.83333 0.666667 0.333333
2 0.666667 0.166666
2 0.5 0.333333
2 0.5 0.166666
2 0.5 0
2.16667 0.5 0
2.16667 0.5 0.333333
2.16667 0.666667 0.333333
2.16667 0.666667 0.166666
2.33333 0.666667 0.166666
2.16667 0.666667 0
2.33333 0.5 0.166666
2.33333 0.5 0
2.33333 0.5 0.333333
2.5 0.5 0.333333
2.5 0.666667 0.166666
2.5 0.666667 0
2.5 0.5 0
2.5 0.666667 0.333333
2.66667 0.666667 0.166666
2.66667 0.5 0.333333
2.66667 0.5 0.166666
2.66667 0.5 0
2.83333 0.5 0
2.83333 0.5 0.333333
2.83333 0.666667 0.333333
2.83333 0.666667 0.166666
3 0.666667 0.166666
2.83333 0.666667 0
3 0.5 0.166666
3 0.5 0
3 0.5 0.333333
0 0.833333 0.333333
0 0.833333 0.166666
0.166666 0.833333 0.333333
0 1 0.166666
0 0.833333 0
0.166666 1 0.166666
0.166666 1 0
0.166666 0.833333 0
0.166666 1 0.333333
0.333333 1 0.166666
0.333333 0.833333 0.333333
0.333333 0.833333 0.166666
0.333333 0.833333 0
0.5 0.833333 0
0.5 0.833333 0.333333
0.5 1 0.333333
0.5 1 0.166666
0.666667 1 0.166666
0.5 1 0
0.666667 0.833333 0.166666
0.666667 0.833333 0
0.666667 0.833333 0.333333
0.833332 0.833333 0.333333
0.833332 1 0.166666
0.833332 1 0
0.833332 0.833333 0
0.833332 1 0.333333
0.999997 1 0.166666
0.999997 0.833333 0.333333
0.999997 0.833333 0.166666
0.999997 0.833333 0
1.16667 0.833333 0
1.16667 0.833333 0.333333
1.16667 1 0.333333
1.16667 1 0.166666
1.33334 1 0.166666
1.16667 1 0
1.33334 0.833333 0.166666
1.33334 0.833333 0
1.33334 0.833333 0.333333
1.5 0.833333 0.333333
1.5 1 0.166666
1.5 1 0
1.5 0.833333 0
1.5 1 0.333333
1.66666 1 0.166666
1.66666 0.833333 0.333333
1.66666 0.833333 0.166666
1.66666 0.833333 0
1.83333 0.833333 0
1.83333 0.833333 0.333333
1.83333 1 0.333333
1.83333 1 0.166666
2 1 0.166666
1.83333 1 0
2 0.833333 0.166666
2 0.833333 0
2 0.833333 0.333333
2.16667 0.833333 0.333333
2.16667 1 0.166666
2.16667 1 0
2.16667 0.833333 0
2.16667 1 0.333333
2.33333 1 0.166666
2.33333 0.833333 0.333333
2.33333 0.833333 0.166666
2.33333 0.833333 0
2.5 0.833333 0
2.5 0.833333 0.333333
2.5 1 0.333333
2.5 1 0.166666
2.66667 1 0.166666
2.5 1 0
2.66667 0.833333 0.166666
2.66667 0.833333 0
2.66667 0.833333 0.333333
2.83333 0.833333 0.333333
2.83333 1 0.166666
2.83333 1 0
2.83333 0.833333 0
2.83333 1 0.333333
3 1 0.166666
3 0.833333 0.333333
3 0.833333 0.166666
3 0.833333 0
0 0 0.5
0 0.166666 0.5
0.166666 0 0.5
0 0.166666 0.666667
0 0.333333 0.5
0.166666 0.166666 0.666667
0.166666 0.333333 0.666667
0.166666 0.333333 0.5
0.333333 0.333333 0.5
0.333333 0.166666 0.5
0.333333 0.166666 0.666667
0.333333 0 0.5
0.166666 0 0.666667
0.5 0 0.5
0.5 0 0.666667
0.5 0.166666 0.666667
0.5 0.333333 0.5
0.5 0.333333 0.666667
0.666667 0.333333 0.5
0.666667 0.166666 0.666667
0.666667 0.166666 0.5
0.666667 0 0.5
0.833332 0 0.5
0.833332 0.166666 0.666667
0.833332 0.333333 0.666667
0.833332 0.333333 0.5
0.999997 0.333333 0.5
0.999997 0.166666 0.5
0.999997 0.166666 0.666667
0.999997 0 0.5
0.833332 0 0.666667
1.16667 0 0.5
1.16667 0 0.666667
1.16667 0.166666 0.666667
1.16667 0.333333 0.5
1.16667 0.333333 0.666667
1.33334 0.333333 0.5
1.33334 0.166666 0.666667
1.33334 0.166666 0.5
1.33334 0 0.5
1.5 0 0.5
1.5 0.166666 0.666667
1.5 0.333333 0.666667
1.5 0.333333 0.5
1.66666 0.333333 0.5
1.66666 0.166666 0.5
1.66666 0.166666 0.666667
1.66666 0 0.5
1.5 0 0.666667
1.83333 0 0.5
1.83333 0 0.666667
1.83333 0.166666 0.666667
1.83333 0.333333 0.5
1.83333 0.333333 0.666667
2 0.333333 0.5
2 0.166666 0.666667
2 0.166666 0.5
2 0 0.5
2.16667 0 0.5
2.16667 0.166666 0.666667
2.16667 0.333333 0.666667
2.16667 0.333333 0.5
2.33333 0.333333 0.5
2.33333 0.166666 0.5
2.33333 0.166666 0.666667
[...]
POINT_DATA 850
SCALARS weights float 1
LOOKUP_TABLE default
1.23455 1.23455 12.3457 6.17277 6.17277 2.46914 3.08641 12.3456 12.3457 6.17283 0.617282 2.46914 6.17284 1.23457 2.46914 1.23456 3.08638 6.17281 2.46911 1.23457 1.23457 1.23457 3.08641 1.23455 6.17284 6.17283 12.3456 1.23455 1.23457 2.46914 6.17277 12.3457 6.17284 2.46911 0.617276 3.08638 1.23457 0.617275 12.3457 1.23457 6.17283 2.46914 2.46914 1.23457 1.23457 12.3457 2.46914 12.3457 12.3457 2.46913 2.46914 12.3457 12.3457 2.46914 12.3457 12.3457 12.3456 2.46914 1.23457 12.3457 2.46913 0.617282 6.17283 6.17283 2.46913 6.17283 2.46913 1.23456 12.3456 6.17284 2.46914 1.23457 12.3457 6.17284 2.46914 1.23457 12.3457 6.17284 2.46914 1.23457 12.3457 12.3457 1.23457 2.46913 2.46914 12.3457 6.17281 2.46913 1.23457 12.3457 6.17284 2.46914 1.23457 12.3457 6.17284 2.46914 1.23457 12.3457 6.17283 2.46913 2.46914 12.3457 1.23457 4.93828 24.6913 4.93829 24.6914 4.93828 24.6914 4.93829 24.6914 2.46914 2.46913 24.6914 4.93826 24.6914 4.93828 24.6914 4.93828 24.6914 4.93828 6.17283 6.17283 6.17284 6.17277 2.46913 12.3456 12.3456 2.46914 2.46914 12.3457 12.3457 2.46914 2.46914 12.3457 12.3457 2.46914 2.46914 12.3457 12.3457 12.3457 2.46914 24.6914 4.93826 24.6914 4.93828 24.6914 4.93828 24.6914 4.93828 12.3457 12.3457 4.93828 24.6913 4.93829 24.6914 4.93828 24.6914 4.93829 24.6914 0.617282 1.23457 2.46913 2.46913 1.23457 4.93826 1.23457 0.617282 4.93826 1.23457 2.46913 2.46914 2.46913 2.46913 4.93826 1.23457 1.23457 0.617282 0.617284 2.46913 2.46913 4.93828 2.46914 4.93828 2.46913 1.23457 4.93824 1.23456 2.46913 1.23456 1.23457 2.46911 1.23456 4.93823 4.93823 1.23456 2.46911 2.46912 2.46914 2.46914 4.93827 1.23457 1.23457 0.617278 0.617291 2.46916 2.46916 4.93833 2.46917 4.93833 2.46914 1.23458 4.93827 1.23457 2.46914 1.23457 1.23458 2.46911 1.23456 4.93822 4.93822 1.23456 2.46911 2.46911 2.46914 2.46914 4.93827 1.23457 1.23457 0.617276 0.617291 2.46916 2.46916 4.93833 2.46917 4.93833 2.46914 1.23458 4.93827 1.23457 2.46914 1.23457 1.23458 2.46911 1.23456 4.93823 4.93822 1.23456 2.46911 2.46911 2.46914 2.46914 4.93827 1.23457 1.23457 0.617276 0.617292 2.46916 2.46916 4.93833 2.46918 4.93833 2.46913 1.23458 4.93827 1.23457 2.46913 1.23457 1.23458 2.46911 1.23456 4.93822 4.93822 1.23456 2.46911 2.46911 1.23455 1.23455 2.46911 0.617275 0.617275 0.617275 2.46914 0.617284 2.46914 1.23457 1.23457 4.93828 2.46914 4.93826 2.46913 1.23457 4.93828 1.23457 2.46914 4.93829 4.93828 1.23457 2.46914 2.46914 2.46913 2.46913 4.93826 1.23457 2.46912 4.93825 2.46912 4.93823 2.46914 1.23456 4.93829 1.23457 2.46915 4.93835 4.93833 1.23458 2.46917 2.46917 2.46914 2.46915 4.93828 1.23457 2.46911 4.93824 2.46911 4.93822 2.46914 1.23455 4.93828 1.23457 2.46915 4.93835 4.93833 1.23458 2.46917 2.46916 2.46914 2.46915 4.93829 1.23457 2.46912 4.93824 2.46912 4.93822 2.46914 1.23455 4.93829 1.23457 2.46915 4.93835 4.93833 1.23459 2.46917 2.46916 2.46913 2.46914 4.93828 1.23457 2.46911 4.93823 2.46911 4.93822 1.23455 1.23455 2.46911 0.617278 1.23456 1.23457 2.46913 4.93826 0.617282 0.617282 2.46913 0.617282 2.46913 1.23457 1.23457 2.46913 4.93826 1.23457 2.46913 4.93828 1.23457 2.46913 1.23456 0.617283 4.93825 1.23456 2.46913 4.93823 2.46911 0.617278 2.46911 1.23456 1.23457 2.46914 4.93827 1.23457 2.46916 4.93833 1.23458 2.46916 1.23457 0.61729 4.93827 1.23457 2.46914 4.93822 2.46911 0.617277 2.46911 1.23455 1.23457 2.46914 4.93827 1.23457 2.46916 4.93833 1.23458 2.46916 1.23457 0.617289 4.93827 1.23457 2.46914 4.93823 2.46911 0.617278 2.46911 1.23455 1.23457 2.46914 4.93827 1.23457 2.46916 4.93833 1.23459 2.46916 1.23457 0.617289 4.93827 1.23457 2.46913 4.93822 2.46911 0.617277 2.46911 1.23455 0.617276 1.23455 2.46911 0.617275 0.617284 2.46914 2.46914 1.23457 1.23457 4.93826 2.46914 4.93828 2.46914 4.93828 2.46913 1.23457 1.23457 2.46914 1.23457 4.93828 4.93829 2.46914 2.46913 2.46913 4.93826 1.23457 2.46912 4.93823 2.46912 4.93825 2.46915 4.93829 2.46914 1.23457 1.23456 2.46917 1.23458 4.93833 4.93835 2.46917 2.46915 2.46914 4.93828 1.23457 2.46911 4.93822 2.46912 4.93824 2.46915 4.93828 2.46914 1.23457 1.23455 2.46917 1.23458 4.93833 4.93835 2.46916 2.46915 2.46914 4.93829 1.23457 2.46912 4.93822 2.46912 4.93824 2.46915 4.93829 2.46914 1.23457 1.23455 2.46917 1.23459 4.93833 4.93835 2.46916 2.46914 2.46914 4.93828 1.23457 2.46911 4.93822 2.46911 4.93824 1.23456 2.46911 1.23455 0.617277 1.23455 1.23457 2.46914 4.93828 1.23457 4.93828 2.46913 2.46914 2.46914 4.93829 4.93829 2.46914 4.93829 2.46913 4.93828 2.46913 4.93825 4.93825 2.46912 2.46915 2.46915 4.9383 4.93835 2.46917 4.93835 2.46915 4.9383 2.46915 4.93824 4.93824 2.46911 2.46915 2.46915 4.9383 4.93834 2.46917 4.93835 2.46915 4.9383 2.46915 4.93824 4.93824 2.46911 2.46915 2.46915 4.9383 4.93835 2.46918 4.93835 2.46914 4.9383 2.46914 4.93824 4.93824 2.46911 1.23456 1.23456 2.46912 2.46914 1.23457 0.617284 4.93826 1.23457 2.46914 1.23457 4.93828 2.46913 4.93828 2.46914 1.23457 1.23456 2.46913 4.93826 4.93823 1.23456 2.46912 1.23457 4.93829 2.46914 4.93833 2.46917 1.23458 1.23457 2.46914 4.93828 4.93822 1.23456 2.46911 1.23457 4.93828 2.46914 4.93833 2.46917 1.23458 1.23457 2.46914 4.93829 4.93822 1.23456 2.46912 1.23457 4.93829 2.46914 4.93833 2.46917 1.23458 1.23457 2.46914 4.93828 4.93822 1.23456 2.46911 0.617278 2.46911 1.23455 0.617282 0.617282 2.46913 2.46913 0.617282 2.46913 1.23457 4.93826 1.23457 2.46914 1.23457 4.93826 1.23457 2.46913 2.46913 1.23457 4.93828 2.46913 4.93825 1.23456 1.23456 0.617283 2.46911 0.617278 2.46911 4.93823 1.23456 2.46914 1.23457 4.93827 1.23457 2.46916 2.46916 1.23458 4.93833 2.46914 4.93827 1.23457 1.23457 0.61729 2.46911 0.617277 2.46911 4.93822 1.23455 2.46914 1.23457 4.93827 1.23457 2.46916 2.46916 1.23458 4.93833 2.46914 4.93827 1.23457 1.23457 0.617289 2.46911 0.617278 2.46911 4.93822 1.23455 2.46914 1.23457 4.93827 1.23457 2.46916 2.46916 1.23459 4.93833 2.46913 4.93827 1.23457 1.23457 0.617288 2.46911 0.617277 2.46911 4.93822 1.23455 1.23455 0.617276 2.46911 0.617275 2.46914 0.617284 1.23457 2.46914 1.23457 4.93826 2.46913 4.93828 1.23457 2.46914 4.93828 1.23457 2.46913 1.23456 4.93826 2.46912 1.23456 4.93823 2.46914 4.93829 1.23457 2.46917 4.93833 1.23458 2.46914 1.23457 4.93828 2.46911 1.23456 4.93822 2.46914 4.93828 1.23457 2.46917 4.93833 1.23458 2.46914 1.23457 4.93829 2.46912 1.23456 4.93823 2.46914 4.93829 1.23457 2.46917 4.93833 1.23458 2.46914 1.23457 4.93828 2.46911 1.23456 4.93822 1.23455 2.46911 0.617277 0.617282 2.46913 2.46913 0.617282 2.46913 0.617282 1.23457 1.23457 4.93826 2.46913 0.617284 2.46913 1.23456 4.93825 1.23456 2.46911 2.46911 0.617278 1.23457 1.23457 4.93828 2.46916 0.617291 2.46916 1.23457 4.93827 1.23457 2.46911 2.46911 0.617276 1.23457 1.23457 4.93827 2.46916 0.617291 2.46916 1.23457 4.93827 1.23457 2.46911 2.46911 0.617276 1.23457 1.23457 4.93827 2.46916 0.617292 2.46916 1.23457 4.93827 1.23457 2.46911 2.46911 0.617276 0.617276 0.617276 2.46911 
VECTORS u float
0 -0.333333 0.666667  0 -0.333333 -0.666667  -0.0224615 0.358056 -0.498268  0 0.666667 -0.333333  0 0.666667 0.333333  0.0214179 0.581019 -0.170963  0 -2.98023e-07 1  0 -8.9407e-08 -0.333334  -0.0247382 -0.0810283 0.0176169  0.0116743 0.812117 0.125376  0 1 2.38419e-07  -0.0270493 -0.267991 0.0192847  0.000280857 -0.194138 -0.568389  0.00743097 -0.12464 0.810785  -0.0264022 0.0938753 -0.0392798  0.00220108 0.568785 0.192449  0 2.38419e-07 1  -0.000915527 -0.194455 0.567158  0 0.333334 -8.9407e-08  0 0.333333 -0.666667  4.95911e-05 -0.173693 0.322854  0.00836745 0.124973 -0.812013  0 2.38419e-07 -1  0 0.333333 0.666667  -0.000595927 -0.0718651 0.0993723  0 0.666667 -0.333333  -0.0246359 -0.322108 -0.328567  0 0.333333 -0.666667  -0.00019455 0.102438 -0.0722928  -0.0210536 -0.581228 -0.170865  0 -0.666667 0.333333  -0.0248829 -0.0435091 -0.0942869  -0.00104749 0.325203 -0.176093  0 -0.333334 1.19209e-07  0 -1 2.38419e-07  0 -2.98023e-07 -1  -0.00188518 0.569879 -0.192641  0 1 -2.98023e-07  0.0245879 -0.0432267 0.0929958  -0.00760388 -0.124126 -0.811883  -0.0118177 0.813216 -0.125091  0.0208929 -0.497688 0.361332  0.0260875 -0.157871 0.236564  0 -0.333333 -0.666667  0 -0.333333 0.666667  0.0244186 -0.321442 0.327751  -0.0269644 0.0225651 0.0813117  -0.0226096 -0.35871 0.497716  -0.0261704 0.0169665 0.264301  -0.0264685 -0.330616 0.318454  -0.0279448 -0.0477537 0.441975  -0.0250267 -0.235869 0.16072  -0.0211568 -0.168975 0.579173  -0.0267057 -0.0935902 0.0385252  -0.0245823 0.23491 -0.162455  -0.0253137 0.0810406 -0.0198395  0 1.19209e-07 0.333334  -0.0273246 0.268398 -0.0197767  0.000289798 0.101239 0.0708284  -0.0259125 0.439158 0.0501267  -0.0211418 0.581998 0.171195  0 -1 -2.98023e-07  0 -0.666667 0.333333  0 -0.666667 -0.333333  0.0275633 -0.0484716 -0.442271  0.0107329 -0.813032 -0.125331  0.0213159 -0.581801 0.170796  0.00217456 -0.56909 -0.192954  0.0255556 -0.438492 0.0503811  2.74181e-06 -0.324123 -0.175739  0.027334 -0.268332 -0.0199612  0.000463367 -0.101857 -0.0719931  0.024772 -0.0811815 -0.0192797  -0.000549078 0.0724751 0.100161  0.0267788 0.0938062 0.0385497  0.000407457 0.174002 0.32351  0.0246842 0.235556 0.161098  0.00057292 0.194369 0.568158  0.0264542 0.330547 0.318613  -0.00701594 0.124279 0.811742  0.0222871 0.358196 0.498116  -0.0255959 -0.437542 -0.0519568  0 0.333333 0.666667  -0.0262582 0.330469 -0.319301  0.0267991 0.0221344 -0.0820696  0.0211319 0.168871 0.579288  0.000531733 0.193127 -0.569215  0.0278 0.047927 0.4416  0.000261784 0.174065 -0.324121  0.0257176 -0.0168686 0.264336  0.000398755 0.0728536 -0.102235  0.0267894 -0.0223881 0.0811563  6.92606e-05 -0.101762 0.0715879  0.0249949 0.043092 -0.0947993  0.000191689 -0.323166 0.174314  0.0262532 0.158175 -0.23743  -0.00200176 -0.569259 0.192732  0.0243154 0.322247 -0.328912  -0.0119143 -0.811476 0.125436  0.0210962 0.497897 -0.361286  -0.0262554 -0.157971 -0.237394  0 -8.9407e-08 0.333334  -0.000125527 -0.173993 -0.324648  0.000133365 -0.046976 0.268863  0.000149548 -0.0689828 0.188681  0.000389218 -0.0624477 0.106558  0.000100374 -0.0278407 0.0304114  -0.000107408 0.0312267 -0.0279845  -0.000385046 0.107164 -0.0631562  -5.96046e-06 0.189987 -0.0686367  -0.000118971 0.269021 -0.0465395  0 -0.333334 -8.9407e-08  -0.0209583 -0.497793 -0.361769  -0.000503898 -0.268751 -0.0462355  -0.000197709 -0.189925 -0.0687215  0.000492334 -0.10717 -0.0629393  2.24113e-05 -0.0311702 -0.0279386  -8.09431e-05 0.0278885 0.0304564  -0.000627875 0.0626274 0.106698  -0.000313997 0.0688656 0.189147  -5.31673e-05 0.0467681 0.268931  0 0.666667 0.333333  0.000552177 -0.0725556 -0.100867  0.00095284 0.323838 0.174933  0 -0.666667 -0.333333  -0.0207099 0.497589 0.361151  0.0260305 0.437827 -0.0511746  -0.0238677 0.321342 0.327784  0.0273488 0.267823 0.0189817  -0.0259876 0.157862 0.236439  0.0253392 0.0802146 0.0179543  -0.0247183 0.043225 0.0929992  0.0266221 -0.0937953 -0.0397113  -0.0267687 -0.0223169 -0.0821941  0.0248463 -0.235738 -0.162319  -0.0257849 -0.0160424 -0.265086  0.0263543 -0.330168 -0.319398  -0.0277164 0.0484877 -0.4422  0.0221114 -0.358046 -0.498094  -0.0209782 0.169511 -0.57932  0.0255426 0.0159698 -0.265692  0 0.333334 1.19209e-07  -0.000486493 0.268572 0.0462921  0.000114083 0.18961 0.0685413  0.000152826 0.106642 0.0622874  0.000242352 0.0309668 0.0273443  -0.000605464 -0.0282902 -0.0317196  -0.000366569 -0.0624923 -0.107177  -0.000746727 -0.0687275 -0.189668  0.000155926 -0.0469348 -0.269163  0 1.19209e-07 -0.333334  0.0204913 -0.169969 -0.579474  1.27256e-05 0.0471119 -0.269193  0.000130713 0.0685186 -0.189648  0.000422239 0.0626867 -0.10713  0.000255585 0.0277798 -0.0314094  -0.000138998 -0.0310352 0.0274507  -0.000410914 -0.106812 0.0622808  -7.65324e-05 -0.189596 0.068575  8.24928e-05 -0.268476 0.0461619  0 0.166666 0.833334  0 0.166666 0.500001  0 -1.93715e-07 0.666667  0.0109621 0.0907812 0.769817  0.00737558 0.248864 0.628807  0.00369556 0.113184 0.4684  0 -0.166667 0.500001  0 -0.166667 0.833334  -0.0041102 -0.186615 0.442772  -0.00726058 -0.35586 0.581473  -0.008503 -0.205379 0.753265  -0.000317872 -0.0248657 0.303605  -0.0053879 -0.203779 0.382862  0.00543401 0.0643891 0.425793  0.00233912 -0.0908515 0.540465  0.0252763 0.0221237 0.691033  -0.0192026 -0.24481 0.661035  0.00547464 -0.0647482 0.912113  0.00508904 -0.16752 0.693857  0.0310317 -0.0320477 0.593199  -0.0287072 -0.263158 0.557366  0.00641173 0.0231332 0.373186  0.000674903 -0.06045 0.229304  -0.00637683 -0.205708 0.317962  -0.00664896 -0.198549 0.253438  -0.0249535 -0.352872 0.409287  0.000608146 -0.137977 0.378928  -0.0287676 -0.262598 0.450446  0.00731313 -0.00908713 0.315469  0.0307921 -0.0758868 0.497548  0.0255406 0.104942 0.516435  0.0284402 -0.0980845 0.393974  0.0265337 0.00763936 0.355194  0.00712699 -0.0287186 0.253431  -0.00664473 -0.177879 0.191207  -0.0255932 -0.289454 0.234053  -0.0270171 -0.238137 0.349593  -0.000438273 -0.0684303 0.148407  -0.00668716 -0.148406 0.131925  0.0073235 -0.0395051 0.187565  0.000555515 -0.124951 0.213098  0.030003 -0.09761 0.28719  -0.0293273 -0.209925 0.247164  -0.00144893 -0.192637 0.443065  0.00128901 -0.132156 0.209239  0.0275042 -0.072677 0.183876  -0.0282512 -0.158528 0.153709  0.00700378 -0.0366309 0.121317  0.00100362 -0.0471646 0.0667516  -0.00659144 -0.107004 0.0797279  -0.00651729 -0.0595418 0.0350592  -0.0257651 -0.170736 0.0941446  0.000105381 -0.055321 0.0618616  -0.0282973 -0.0874414 0.0741267  0.00658667 -0.0243972 0.057301  0.0282691 -0.0447164 0.0837145  0.0261171 -0.027827 0.174923  0.0280145 0.00544142 -0.00914036  0.0255747 0.00284118 -0.00997066  0.00652945 0.00103714 -0.00262418  -0.00672364 -0.00333318 0.00121778  -0.0258039 -0.00743398 0.00132097  -0.0271534 -0.00370713 0.0141985  -0.00076592 -0.000673115 -3.0458e-05  -0.00705767 0.0577859 -0.0246434  0.00667191 0.0358482 -0.0596593  7.99894e-05 0.0627328 -0.055859  0.0295168 0.0752327 -0.0898932  -0.02968 0.084255 -0.0451854  -0.00149 0.00996054 0.00647763  0.000932097 0.207881 -0.131607  0.0270523 0.161338 -0.152144  -0.0286989 0.183996 -0.0828016  0.00639153 0.0812072 -0.108049  0.000451922 0.0687687 -0.0482076  -0.00714684 0.12314 -0.0372788  -0.00710118 0.188257 -0.0401973  -0.0262485 0.173644 -0.0277891  -0.000525117 0.213949 -0.125398  -0.0290221 0.289794 -0.0970209  0.00603938 0.132224 -0.14869  0.0277719 0.247824 -0.210133  0.0255612 0.093034 -0.169758  0.0273957 0.346426 -0.248005  0.0249665 0.236597 -0.290355  0.00597 0.190531 -0.177616  -0.00724936 0.253032 -0.0290631  -0.026444 0.358181 0.00820487  -0.0281103 0.392537 -0.08791  -0.00103021 0.147656 -0.0683661  -0.00693297 0.316474 -0.0087744  0.00584841 0.254027 -0.197955  -0.000756502 0.380347 -0.137453  0.0285051 0.452118 -0.263772  -0.0308113 0.498366 -0.0752921  -0.00234747 0.448074 -0.193158  -0.00368476 0.690631 -0.169163  0.0239875 0.558642 -0.254827  -0.0315149 0.600125 -0.0379317  0.00511885 0.318309 -0.20541  0.000809908 0.231383 -0.0600295  -0.00634289 0.374865 0.0246508  -0.00542307 0.426546 0.0633287  -0.0250111 0.515533 0.103584  -0.00368476 0.541097 -0.0902973  -0.0237076 0.690882 0.0214291  0.00414371 0.38217 -0.202415  0.0173481 0.658882 -0.244558  0.0239286 0.407298 -0.351925  0.00466299 0.753584 -0.210918  0.0130005 0.585083 -0.354855  0.000172377 0.443166 -0.188588  -0.00130486 0.467708 0.112816  -0.0122321 0.629107 0.248552  -0.0111206 0.767986 0.0946885  -0.000490427 0.303166 -0.0255475  0 0.500001 0.166666  0 0.500001 -0.166667  0 0.666667 -1.93715e-07  0 0.833334 -0.166667  0 0.833334 0.166666  -0.0045104 0.913526 -0.0643657  0 -0.333334 0.333333  0 -0.5 0.5  -0.00453009 -0.4934 0.412178  0 -0.166667 0.166667  0 -0.500001 0.166666  -0.000181869 -0.164269 0.137634  0.000338152 -0.302976 -0.025408  0.0012265 -0.467464 0.112839  0.00556993 -0.426345 0.0635517  0.0126622 -0.629013 0.248439  -0.00174519 -0.313033 0.221924  -0.00124991 -0.473592 0.332182  -0.000226468 -0.157377 0.111726  -0.000548869 -0.143128 0.0859868  0.00612628 -0.374809 0.0245562  0.0253569 -0.515303 0.103392  -9.02414e-05 -0.429447 0.257885  -0.00104064 -0.231463 -0.0600343  0.00705868 -0.316334 -0.00854826  -0.000387967 -0.12818 0.0602913  0.00164062 -0.256676 0.123777  -1.58548e-05 -0.386892 0.181115  0.000320435 -0.325772 0.118802  0.000158727 -0.108856 0.0389222  0.00091058 -0.147649 -0.0681055  0.00721097 -0.252738 -0.0286784  0.00727451 -0.188614 -0.0399107  0.026794 -0.3581 0.00852596  -0.00139797 -0.166855 0.0473489  -5.03659e-05 -0.254615 0.0677639  0.000359654 -0.0846364 0.0234961  0.000208378 -0.0566849 0.0125906  0.00700045 -0.123256 -0.0374911  0.0263016 -0.173566 -0.027802  -0.000331283 -0.170311 0.0388532  -0.000294089 -0.068803 -0.0482382  0.00711679 -0.0580386 -0.0244461  -8.96454e-05 -0.0286245 0.00251049  0.00185311 -0.0592755 0.00721711  -0.00017786 -0.0870092 0.00594996  -0.0001899 2.5928e-05 -0.00161392  -6.35386e-05 3.56436e-05 -0.00137183  0.000609636 0.000479937 0.000168353  0.00660741 0.0031907 0.00167133  0.00668013 0.0591225 0.0350535  0.0261221 0.0071075 0.00165145  -0.00184155 0.0588664 0.00731178  -0.000528097 0.087188 0.00585196  -0.000104785 0.0285619 0.0026837  -0.000371814 0.0568739 0.0126407  0.00647807 0.107181 0.0794965  0.0259281 0.170853 0.0942807  -0.000751734 0.170032 0.038783  -0.000955939 0.0472625 0.066693  0.00672388 0.14818 0.131991  -0.000617623 0.0847262 0.0233229  0.00134993 0.166617 0.0470702  -0.000672579 0.254652 0.068027  -0.000701666 0.325847 0.118947  -0.000409603 0.108928 0.0390386  9.60827e-05 0.0682715 0.148635  0.00644565 0.177447 0.191651  0.00661659 0.198006 0.253342  0.0259335 0.288973 0.234246  -0.00171113 0.256236 0.123852  -0.000611544 0.387077 0.181355  6.69956e-05 0.127973 0.0605836  0.000145912 0.143165 0.0862302  0.00611949 0.205763 0.317959  0.0250487 0.352731 0.409437  -0.000791311 0.429329 0.257938  -0.000650644 0.0603959 0.229413  0.00544596 0.203361 0.38298  -5.96046e-06 0.15747 0.111566  0.00178838 0.313083 0.222001  0.000848055 0.473537 0.332838  0.00454259 0.493502 0.412457  2.19345e-05 0.164244 0.137466  0.000458956 0.0246289 0.303584  0.00398588 0.186257 0.44289  0 0.166667 0.500001  0.00758505 0.355488 0.581488  0 0.333334 0.333333  0 0.5 0.5  0 0.166667 0.166667  0 -0.500001 -0.166667  0 -0.666667 -1.93715e-07  -0.000383928 -0.443257 -0.188711  0 -0.833334 -0.166667  0 -0.833334 0.166666  -0.00486639 -0.75353 -0.211256  0.00420007 -0.913711 -0.0645882  0.0109026 -0.767756 0.094619  -0.0128131 -0.585062 -0.355009  -0.0174197 -0.658322 -0.244516  -0.004287 -0.38221 -0.202439  0.00372243 -0.540895 -0.0902717  0.0235608 -0.690434 0.0211441  0.0311946 -0.600195 -0.0386542  -0.00535747 -0.318332 -0.205081  -0.0239084 -0.407315 -0.351961  -0.0240215 -0.558605 -0.254432  -0.028332 -0.451847 -0.263885  0.00372124 -0.690279 -0.169316  0.000849545 -0.380022 -0.137564  0.0307496 -0.498117 -0.0754082  -0.00595969 -0.253856 -0.197984  -0.00603396 -0.190827 -0.177356  -0.0278807 -0.345958 -0.247627  0.00228697 -0.447517 -0.192887  0.0280563 -0.392536 -0.0878832  -0.0250238 -0.236548 -0.289959  -0.0279589 -0.2473 -0.209214  -0.00612676 -0.132571 -0.148583  0.000390053 -0.214048 -0.125501  0.0290346 -0.28911 -0.0970448  0.0283835 -0.183297 -0.0832209  -0.0065577 -0.0815642 -0.107732  -0.0254592 -0.0932063 -0.169587  -0.0270463 -0.161495 -0.151425  -0.0293097 -0.0750892 -0.0897162  -0.000939488 -0.207205 -0.131296  -1.35899e-05 -0.062713 -0.0557702  0.0296173 -0.0842315 -0.0450804  -0.00677526 -0.03582 -0.0594604  -0.00656044 -0.0015226 -0.00256777  -0.0284594 -0.00541073 -0.00870399  0.00139081 -0.00994796 0.00687704  0.0269921 0.0033949 0.0142693  -0.0255698 -0.00312108 -0.00960478  -0.0285379 0.044547 0.0846298  -0.00677085 0.0241914 0.0571334  -0.000258088 0.0554284 0.0616553  0.0282842 0.0880119 0.0745515  0.0279764 0.159344 0.153911  -0.00734866 0.0363917 0.121349  -0.0263708 0.0278608 0.174848  -0.0276517 0.0723079 0.184216  -0.029822 0.0978513 0.287369  -0.00126743 0.132447 0.209843  -0.000592947 0.125058 0.213255  0.0293362 0.209926 0.247382  -0.00770342 0.0397724 0.18776  -0.00748825 0.0286506 0.253359  -0.0286856 0.0979177 0.39