# vtk DataFile Version 5.1
vtk output
ASCII

DATASET UNSTRUCTURED_GRID
POINTS 835 float
2 0 1
3 1 0
0.999997 1 0.5
0 0.5 1
0.5 0.5 1
0 0 0
0 1 1
3 0.5 0
3 0 0.5
3 0 1
2.5 1 0.5
0.5 0 0
0.5 0 1
0.5 1 1
0.999997 0 0
2 1 0.5
3 0.5 0.5
1.5 0 0
0 0 1
0.999997 0 1
2 0 0
3 0 0
3 1 0.5
3 1 1
2.5 0 0
2 1 1
0.999997 1 1
0 1 0
0 0.5 0
2.5 1 1
1.5 1 1
0.5 1 0
0.5 0.5 0
0.999997 1 0
0.999997 0.5 0
1.5 1 0
1.5 0.5 0
2 1 0
2 0.5 0
2.5 1 0
2.5 0.5 0
1.5 1 0.5
0 0 0.5
2.5 0 1
1.5 0 1
3 0.5 1
0.5 0 0.5
0.999997 0.5 1
0.999997 0 0.5
1.5 0.5 1
1.5 0 0.5
2 0.5 1
2 0 0.5
2.5 0.5 1
2.5 0 0.5
0 1 0.5
0 0.5 0.5
0.5 1 0.5
0.5 0.5 0.5
0.999997 0.5 0.5
1.5 0.5 0.5
2 0.5 0.5
2.5 0.5 0.5
0 0 0.166667
0 0 0.333333
0 0.166667 0.5
0 0.333333 0.5
0 0.333333 0.333333
0 0.166667 0.166667
0.166667 0 0.166667
0.333333 0 0.333333
0.166667 0 0.5
0.333333 0 0.5
0.166667 0.333333 0.5
0.333333 0.166667 0.5
0.166667 0 0.333333
0.166667 0.166667 0.5
0.166667 0.166667 0.333333
0 0.166667 0.333333
0 0.5 0.333333
0 0.5 0.166667
0 0.333333 0
0 0.166667 0
0.166667 0.5 0.333333
0.333333 0.5 0.166667
0.166667 0.5 0
0.333333 0.5 0
0.166667 0.166667 0
0.333333 0.333333 0
0.166667 0.5 0.166667
0.166667 0.333333 0
0.166667 0.333333 0.166667
0 0.333333 0.166667
0.166667 0.5 0.5
0.333333 0.5 0.5
0.5 0.5 0.333333
0.5 0.5 0.166667
0.5 0.333333 0.5
0.5 0.166667 0.5
0.5 0.333333 0.166667
0.5 0.166667 0.333333
0.333333 0.333333 0.5
0.5 0.333333 0.333333
0.333333 0.333333 0.333333
0.333333 0.5 0.333333
0.5 0 0.333333
0.5 0 0.166667
0.5 0.166667 0
0.5 0.333333 0
0.333333 0 0
0.166667 0 0
0.333333 0 0.166667
0.333333 0.166667 0
0.333333 0.166667 0.166667
0.5 0.166667 0.166667
0.666666 0 0
0.833332 0 0
0.666666 0 0.333333
0.833332 0 0.166667
0.666666 0.333333 0
0.833332 0.166667 0
0.666666 0 0.166667
0.666666 0.166667 0.166667
0.666666 0.166667 0
0.666666 0.166667 0.5
0.833332 0.333333 0.5
0.666666 0.5 0.5
0.833332 0.5 0.5
0.666666 0.5 0.166667
0.833332 0.5 0.333333
0.666666 0.333333 0.5
0.666666 0.5 0.333333
0.666666 0.333333 0.333333
0.999997 0.5 0.333333
0.999997 0.5 0.166667
0.833332 0.5 0
0.666666 0.5 0
0.999997 0.333333 0.333333
0.999997 0.166667 0.166667
0.999997 0.333333 0
0.999997 0.166667 0
0.999997 0.333333 0.166667
0.833332 0.333333 0
0.833332 0.333333 0.166667
0.833332 0.5 0.166667
0.999997 0.333333 0.5
0.999997 0.166667 0.5
0.999997 0 0.333333
0.999997 0 0.166667
0.833332 0 0.5
0.666666 0 0.5
0.833332 0.166667 0.5
0.833332 0 0.333333
0.833332 0.166667 0.333333
0.999997 0.166667 0.333333
1.16666 0 0.166667
1.33333 0 0.333333
1.16666 0 0.5
1.33333 0 0.5
1.16666 0.333333 0.5
1.33333 0.166667 0.5
1.16667 0 0.333333
1.16667 0.166667 0.5
1.16667 0.166667 0.333333
1.16666 0.5 0.333333
1.33333 0.5 0.166667
1.16666 0.5 0
1.33333 0.5 0
1.16666 0.166667 0
1.33333 0.333333 0
1.16667 0.5 0.166667
1.16667 0.333333 0
1.16667 0.333333 0.166667
1.16666 0.5 0.5
1.33333 0.5 0.5
1.5 0.5 0.333333
1.5 0.5 0.166667
1.5 0.333333 0.5
1.5 0.166667 0.5
1.5 0.333333 0.166667
1.5 0.166667 0.333333
1.33333 0.333333 0.5
1.5 0.333333 0.333333
1.33333 0.333333 0.333333
1.33333 0.5 0.333333
1.5 0 0.333333
1.5 0 0.166667
1.5 0.166667 0
1.5 0.333333 0
1.33333 0 0
1.16666 0 0
1.33333 0 0.166667
1.33333 0.166667 0
1.33333 0.166667 0.166667
1.5 0.166667 0.166667
1.66667 0 0
1.83333 0 0
1.66667 0 0.333333
1.83333 0 0.166667
1.66667 0.333333 0
1.83333 0.166667 0
1.66667 0 0.166667
1.66667 0.166667 0.166667
1.66667 0.166667 0
1.66667 0.166667 0.5
1.83333 0.333333 0.5
1.66667 0.5 0.5
1.83333 0.5 0.5
1.66667 0.5 0.166667
1.83333 0.5 0.333333
1.66667 0.333333 0.5
1.66667 0.5 0.333333
1.66667 0.333333 0.333333
2 0.5 0.333333
2 0.5 0.166667
1.83333 0.5 0
1.66667 0.5 0
2 0.333333 0.333333
2 0.166667 0.166667
2 0.333333 0
2 0.166667 0
2 0.333333 0.166667
1.83333 0.333333 0
1.83333 0.333333 0.166667
1.83333 0.5 0.166667
2 0.333333 0.5
2 0.166667 0.5
2 0 0.333333
2 0 0.166667
1.83333 0 0.5
1.66667 0 0.5
1.83333 0.166667 0.5
1.83333 0 0.333333
1.83333 0.166667 0.333333
2 0.166667 0.333333
2.16667 0 0.166667
2.33333 0 0.333333
2.16667 0 0.5
2.33333 0 0.5
2.16667 0.333333 0.5
2.33333 0.166667 0.5
2.16667 0 0.333333
2.16667 0.166667 0.5
2.16667 0.166667 0.333333
2.16667 0.5 0.333333
2.33333 0.5 0.166667
2.16667 0.5 0
2.33333 0.5 0
2.16667 0.166667 0
2.33333 0.333333 0
2.16667 0.5 0.166667
2.16667 0.333333 0
2.16667 0.333333 0.166667
2.16667 0.5 0.5
2.33333 0.5 0.5
2.5 0.5 0.333333
2.5 0.5 0.166667
2.5 0.333333 0.5
2.5 0.166667 0.5
2.5 0.333333 0.166667
2.5 0.166667 0.333333
2.33333 0.333333 0.5
2.5 0.333333 0.333333
2.33333 0.333333 0.333333
2.33333 0.5 0.333333
2.5 0 0.333333
2.5 0 0.166667
2.5 0.166667 0
2.5 0.333333 0
2.33333 0 0
2.16667 0 0
2.33333 0 0.166667
2.33333 0.166667 0
2.33333 0.166667 0.166667
2.5 0.166667 0.166667
2.66667 0 0
2.83333 0 0
2.66667 0 0.333333
2.83333 0 0.166667
2.66667 0.333333 0
2.83333 0.166667 0
2.66667 0 0.166667
2.66667 0.166667 0.166667
2.66667 0.166667 0
2.66667 0.166667 0.5
2.83333 0.333333 0.5
2.66667 0.5 0.5
2.83333 0.5 0.5
2.66667 0.5 0.166667
2.83333 0.5 0.333333
2.66667 0.333333 0.5
2.66667 0.5 0.333333
2.66667 0.333333 0.333333
3 0.5 0.333333
3 0.5 0.166667
2.83333 0.5 0
2.66667 0.5 0
3 0.333333 0.333333
3 0.166667 0.166667
3 0.333333 0
3 0.166667 0
3 0.333333 0.166667
2.83333 0.333333 0
2.83333 0.333333 0.166667
2.83333 0.5 0.166667
3 0.333333 0.5
3 0.166667 0.5
3 0 0.333333
3 0 0.166667
2.83333 0 0.5
2.66667 0 0.5
2.83333 0.166667 0.5
2.83333 0 0.333333
2.83333 0.166667 0.333333
3 0.166667 0.333333
0 0.666667 0.333333
0 0.833333 0.166667
0 0.833333 0
0 0.666667 0
0.166667 0.833333 0
0.333333 0.666667 0
0.166667 0.666667 0.166667
0.166667 0.666667 0
0 0.666667 0.166667
0 0.666667 0.5
0 0.833333 0.5
0 1 0.333333
0 1 0.166667
0.166667 0.666667 0.5
0.333333 0.833333 0.5
0.166667 1 0.5
0.333333 1 0.5
0.166667 1 0.166667
0.333333 1 0.333333
0.166667 0.833333 0.5
0.166667 1 0.333333
0.166667 0.833333 0.333333
0 0.833333 0.333333
0.5 1 0.333333
0.5 1 0.166667
0.333333 1 0
0.166667 1 0
0.5 0.833333 0.333333
0.5 0.666667 0.166667
0.5 0.833333 0
0.5 0.666667 0
0.5 0.833333 0.166667
0.333333 0.833333 0
0.333333 0.833333 0.166667
0.333333 1 0.166667
0.5 0.833333 0.5
0.5 0.666667 0.5
0.333333 0.666667 0.5
0.333333 0.666667 0.333333
0.5 0.666667 0.333333
0.666666 0.833333 0.5
0.833332 0.666667 0.5
0.666666 0.666667 0.5
0.666666 0.666667 0.333333
0.666666 1 0.333333
0.833332 1 0.166667
0.666666 1 0
0.833332 1 0
0.666666 0.666667 0
0.833332 0.833333 0
0.666666 1 0.166667
0.666666 0.833333 0
0.666666 0.833333 0.166667
0.666666 1 0.5
0.833332 1 0.5
0.999997 1 0.333333
0.999997 1 0.166667
0.999997 0.833333 0.5
0.999997 0.666667 0.5
0.999997 0.833333 0.166667
0.999997 0.666667 0.333333
0.833332 0.833333 0.5
0.999997 0.833333 0.333333
0.833332 0.833333 0.333333
0.833332 1 0.333333
0.999997 0.666667 0
0.999997 0.833333 0
0.833332 0.666667 0
0.833332 0.666667 0.166667
0.999997 0.666667 0.166667
1.16666 0.833333 0
1.33333 0.666667 0
1.16667 0.666667 0.166667
1.16667 0.666667 0
1.16666 0.666667 0.5
1.33333 0.833333 0.5
1.16666 1 0.5
1.33333 1 0.5
1.16666 1 0.166667
1.33333 1 0.333333
1.16667 0.833333 0.5
1.16667 1 0.333333
1.16667 0.833333 0.333333
1.5 1 0.333333
1.5 1 0.166667
1.33333 1 0
1.16666 1 0
1.5 0.833333 0.333333
1.5 0.666667 0.166667
1.5 0.833333 0
1.5 0.666667 0
1.5 0.833333 0.166667
1.33333 0.833333 0
1.33333 0.833333 0.166667
1.33333 1 0.166667
1.5 0.833333 0.5
1.5 0.666667 0.5
1.33333 0.666667 0.5
1.33333 0.666667 0.333333
1.5 0.666667 0.333333
1.66667 0.833333 0.5
1.83333 0.666667 0.5
1.66667 0.666667 0.5
1.66667 0.666667 0.333333
1.66667 1 0.333333
1.83333 1 0.166667
1.66667 1 0
1.83333 1 0
1.66667 0.666667 0
1.83333 0.833333 0
1.66667 1 0.166667
1.66667 0.833333 0
1.66667 0.833333 0.166667
1.66667 1 0.5
1.83333 1 0.5
2 1 0.333333
2 1 0.166667
2 0.833333 0.5
2 0.666667 0.5
2 0.833333 0.166667
2 0.666667 0.333333
1.83333 0.833333 0.5
2 0.833333 0.333333
1.83333 0.833333 0.333333
1.83333 1 0.333333
2 0.666667 0
2 0.833333 0
1.83333 0.666667 0
1.83333 0.666667 0.166667
2 0.666667 0.166667
2.16667 0.833333 0
2.33333 0.666667 0
2.16667 0.666667 0.166667
2.16667 0.666667 0
2.16667 0.666667 0.5
2.33333 0.833333 0.5
2.16667 1 0.5
2.33333 1 0.5
2.16667 1 0.166667
2.33333 1 0.333333
2.16667 0.833333 0.5
2.16667 1 0.333333
2.16667 0.833333 0.333333
2.5 1 0.333333
2.5 1 0.166667
2.33333 1 0
2.16667 1 0
2.5 0.833333 0.333333
2.5 0.666667 0.166667
2.5 0.833333 0
2.5 0.666667 0
2.5 0.833333 0.166667
2.33333 0.833333 0
2.33333 0.833333 0.166667
2.33333 1 0.166667
2.5 0.833333 0.5
2.5 0.666667 0.5
2.33333 0.666667 0.5
2.33333 0.666667 0.333333
2.5 0.666667 0.333333
2.66667 0.833333 0.5
2.83333 0.666667 0.5
2.66667 0.666667 0.5
2.66667 0.666667 0.333333
2.66667 1 0.333333
2.83333 1 0.166667
2.66667 1 0
2.83333 1 0
2.66667 0.666667 0
2.83333 0.833333 0
2.66667 1 0.166667
2.66667 0.833333 0
2.66667 0.833333 0.166667
2.66667 1 0.5
2.83333 1 0.5
3 1 0.333333
3 1 0.166667
3 0.833333 0.5
3 0.666667 0.5
3 0.833333 0.166667
3 0.666667 0.333333
2.83333 0.833333 0.5
3 0.833333 0.333333
2.83333 0.833333 0.333333
2.83333 1 0.333333
3 0.666667 0
3 0.833333 0
2.83333 0.666667 0
2.83333 0.666667 0.166667
3 0.666667 0.166667
0 0 0.666667
0 0 0.833333
0 0.166667 0.833333
0 0.333333 0.666667
0.166667 0 0.833333
0.333333 0 0.666667
0.166667 0 0.666667
0.166667 0.166667 0.666667
0 0.166667 0.666667
0 0.166667 1
0 0.333333 1
0 0.5 0.833333
0 0.5 0.666667
0.166667 0.166667 1
0.333333 0.333333 1
0.166667 0.5 1
0.333333 0.5 1
0.166667 0.5 0.666667
0.333333 0.5 0.833333
0.166667 0.333333 1
0.166667 0.5 0.833333
0.166667 0.333333 0.833333
0 0.333333 0.833333
0.5 0.5 0.833333
0.5 0.5 0.666667
0.5 0.333333 0.833333
0.5 0.166667 0.666667
0.5 0.333333 0.666667
0.333333 0.333333 0.666667
0.333333 0.5 0.666667
0.5 0.333333 1
0.5 0.166667 1
0.5 0 0.833333
0.5 0 0.666667
0.333333 0 1
0.166667 0 1
0.333333 0.166667 1
0.333333 0 0.833333
0.333333 0.166667 0.833333
0.5 0.166667 0.833333
0.666666 0 0.666667
0.833332 0 0.833333
0.666666 0 1
0.833332 0 1
0.666666 0.333333 1
0.833332 0.166667 1
0.666666 0 0.833333
0.666666 0.166667 1
[...]
POINT_DATA 835
SCALARS weights float 1
LOOKUP_TABLE default
10.4166 5.20836 4.16667 2.08333 20.8333 5.20833 5.20833 2.08334 2.08334 5.20836 20.8333 2.08333 2.08333 2.08333 10.4167 4.16666 20.8334 2.08334 5.20833 10.4167 10.4166 5.20836 2.08334 5.20836 2.08333 10.4166 10.4167 5.20834 2.08333 2.08333 2.08334 2.08333 20.8333 10.4167 4.16667 2.08334 20.8334 10.4166 4.16666 2.08333 20.8333 20.8334 2.08333 2.08333 2.08334 2.08334 20.8333 4.16666 4.16667 20.8334 20.8334 4.16666 4.16666 20.8333 20.8333 2.08333 20.8333 20.8333 8.33331 41.6667 8.33337 41.6666 8.33331 1.04167 1.04167 2.08333 2.08333 4.16667 4.16667 4.16667 4.16667 2.08333 2.08333 8.33334 8.33334 1.04167 2.08333 3.125 1.04167 2.08333 2.08333 1.04167 1.04167 8.33334 8.33334 2.08333 2.08333 4.16667 4.16667 2.08333 1.04167 3.125 1.04167 4.16667 4.16667 4.16666 4.16666 4.16666 4.16666 8.33331 8.33331 2.08333 2.08333 3.125 2.08333 2.08333 2.08333 2.08333 2.08333 1.04167 1.04167 1.04167 1.04167 3.125 2.08333 1.04166 1.04166 4.16664 4.16664 4.16664 4.16664 1.04166 3.12498 1.04166 8.33329 8.33329 4.16664 4.16664 8.33329 8.33329 2.08332 2.08332 3.12498 4.16667 4.16667 2.08332 2.08332 8.33333 8.33333 2.08333 2.08333 2.08333 1.04166 3.12498 2.08332 4.16667 4.16667 2.08333 2.08333 2.08332 2.08332 2.08332 1.04166 3.12498 2.08333 4.16669 4.16669 2.08334 2.08334 8.33338 8.33338 1.04167 2.08334 3.12502 8.33337 8.33337 2.08334 2.08334 4.16669 4.16669 2.08334 1.04167 3.12502 4.16669 4.16669 4.16669 4.16669 4.16669 4.16669 8.33337 8.33337 2.08334 2.08334 3.12501 2.08334 2.08334 2.08334 2.08334 2.08334 1.04167 1.04167 1.04167 1.04167 3.12502 2.08334 1.04167 1.04167 4.16669 4.16669 4.16669 4.16669 1.04167 3.12501 1.04167 8.33337 8.33337 4.16668 4.16668 8.33337 8.33337 2.08334 2.08334 3.12501 4.16666 4.16666 2.08334 2.08334 8.33331 8.33331 2.08333 2.08333 2.08333 1.04167 3.12501 2.08334 4.16666 4.16666 2.08333 2.08333 2.08334 2.08334 2.08334 1.04167 3.12501 2.08333 4.16663 4.16663 2.08331 2.08331 8.33325 8.33325 1.04166 2.08331 3.12497 8.33325 8.33325 2.08331 2.08331 4.16663 4.16663 2.08331 1.04166 3.12497 4.16663 4.16663 4.16666 4.16666 4.16666 4.16666 8.33331 8.33331 2.08331 2.08333 3.12497 2.08331 2.08333 2.08333 2.08333 2.08333 1.04166 1.04166 1.04166 1.04166 3.12497 2.08333 1.04167 1.04167 4.16668 4.16668 4.16668 4.16668 1.04167 3.12501 1.04167 8.33337 8.33337 4.16668 4.16668 8.33337 8.33337 2.08334 2.08334 3.12501 2.08334 2.08334 2.08334 2.08334 4.16669 4.16669 1.04167 1.04167 1.04167 1.04167 3.12501 2.08334 2.08334 2.08334 1.04167 1.04167 2.08334 2.08334 2.08334 1.04167 3.12501 1.04167 4.16667 4.16667 1.04167 1.04167 4.16667 4.16667 3.125 1.04167 1.04167 2.08333 2.08333 1.04167 1.04167 8.33334 8.33334 2.08333 2.08333 4.16667 4.16667 2.08333 1.04167 3.125 1.04167 2.08333 2.08333 1.04167 1.04167 8.33331 8.33331 2.08333 2.08333 2.08333 1.04167 3.125 1.04167 4.16666 4.16666 2.08333 3.125 2.08333 8.33329 8.33329 2.08332 3.12498 4.16664 4.16664 1.04166 1.04166 4.16664 4.16664 1.04166 1.04166 3.12498 2.08332 2.08332 2.08333 2.08333 4.16667 4.16667 8.33333 8.33333 2.08332 2.08333 3.12498 1.04166 2.08333 2.08333 1.04166 3.12498 2.08333 4.16669 4.16669 3.12502 1.04167 8.33337 8.33337 2.08334 2.08334 4.16669 4.16669 2.08334 1.04167 3.12502 2.08334 2.08334 1.04167 1.04167 8.33337 8.33337 2.08334 2.08334 2.08334 1.04167 3.12502 1.04167 4.16669 4.16669 2.08334 3.12502 2.08334 8.33337 8.33337 2.08334 3.12501 4.16669 4.16669 1.04167 1.04167 4.16669 4.16669 1.04167 1.04167 3.12501 2.08334 2.08334 2.08333 2.08333 4.16666 4.16666 8.33331 8.33331 2.08334 2.08333 3.12501 1.04167 2.08333 2.08333 1.04167 3.12502 2.08333 4.16663 4.16663 3.12497 1.04166 8.33326 8.33326 2.08331 2.08331 4.16663 4.16663 2.08331 1.04166 3.12497 2.08333 2.08333 1.04166 1.04166 8.33331 8.33331 2.08333 2.08333 2.08333 1.04166 3.12497 1.04166 4.16666 4.16666 2.08332 3.12497 2.08333 8.33337 8.33337 2.08334 3.12501 4.16668 4.16668 1.04167 1.04167 4.16669 4.16669 1.04167 1.04167 3.12501 2.08334 2.08334 1.04167 1.04167 2.08334 2.08334 4.16669 4.16669 2.08334 1.04167 3.12501 1.04167 1.04167 1.04167 1.04167 3.12501 1.04167 1.04167 1.04167 4.16667 4.16667 4.16667 4.16667 1.04167 3.125 1.04167 1.04167 1.04167 2.08333 2.08333 4.16667 4.16667 2.08333 2.08333 8.33334 8.33334 1.04167 2.08333 3.125 1.04167 4.16666 4.16666 8.33331 8.33331 2.08333 3.125 2.08333 2.08333 2.08333 2.08333 2.08333 1.04167 1.04167 1.04167 1.04167 3.125 2.08333 4.16664 4.16664 1.04166 1.04166 4.16664 4.16664 1.04166 1.04166 3.12498 8.33329 8.33329 2.08332 3.12498 2.08332 2.08332 4.16666 4.16666 2.08333 2.08333 8.33333 8.33333 1.04166 2.08333 3.12498 2.08332 2.08333 2.08333 1.04166 3.12498 2.08333 4.16669 4.16669 1.04167 3.12502 4.16669 4.16669 2.08334 2.08334 8.33338 8.33338 1.04167 2.08334 3.12502 4.16669 4.16669 8.33337 8.33337 2.08334 3.12502 2.08334 2.08334 2.08334 2.08334 2.08334 1.04167 1.04167 1.04167 1.04167 3.12502 2.08334 4.16669 4.16669 1.04167 1.04167 4.16668 4.16668 1.04167 1.04167 3.12501 8.33337 8.33337 2.08334 3.12501 2.08334 2.08334 4.16666 4.16666 2.08333 2.08333 8.33331 8.33331 1.04167 2.08333 3.12501 2.08334 2.08333 2.08333 1.04167 3.12501 2.08333 4.16663 4.16663 1.04166 3.12497 4.16663 4.16663 2.08331 2.08331 8.33325 8.33325 1.04166 2.08331 3.12497 4.16666 4.16666 8.33331 8.33331 2.08333 3.12497 2.08332 2.08333 2.08333 2.08333 2.08333 1.04166 1.04166 1.04166 1.04166 3.12497 2.08333 4.16669 4.16669 1.04167 1.04167 4.16668 4.16668 1.04167 1.04167 3.12501 8.33337 8.33337 2.08334 3.12501 2.08334 2.08334 2.08334 2.08334 1.04167 1.04167 4.16669 4.16669 1.04167 1.04167 3.12501 2.08334 1.04167 1.04167 1.04167 3.12501 1.04167 1.04167 1.04167 4.16667 4.16667 4.16667 4.16667 1.04167 3.125 1.04167 1.04167 1.04167 4.16667 4.16667 1.04167 3.125 1.04167 1.04167 1.04167 2.08333 2.08333 2.08333 2.08333 8.33331 8.33331 1.04167 2.08333 3.125 1.04167 3.125 2.08333 3.12498 4.16664 4.16664 1.04166 1.04166 4.16664 4.16664 1.04166 1.04166 3.12498 2.08333 2.08333 8.33333 8.33333 2.08333 3.12498 1.04166 2.08333 2.08333 1.04166 3.12498 2.08333 4.16669 4.16669 1.04167 3.12502 4.16669 4.16669 1.04167 3.12502 1.04167 1.04167 2.08334 2.08334 2.08334 2.08334 8.33337 8.33337 1.04167 2.08334 3.12502 1.04167 3.12502 2.08334 3.12501 4.16669 4.16669 1.04167 1.04167 4.16669 4.16669 1.04167 1.04167 3.12501 2.08333 2.08333 8.33331 8.33331 2.08333 3.12502 1.04167 2.08333 2.08333 1.04167 3.12501 2.08333 4.16663 4.16663 1.04166 3.12497 4.16663 4.16663 1.04166 3.12497 1.04166 1.04166 2.08333 2.08333 2.08333 2.08333 8.33331 8.33331 1.04166 2.08333 3.12497 1.04166 3.12497 2.08333 3.12501 4.16668 4.16668 1.04167 1.04167 4.16669 4.16669 1.04167 1.04167 3.12501 1.04167 1.04167 4.16669 4.16669 1.04167 3.12501 1.04167 1.04167 1.04167 1.04167 3.12501 1.04167 
VECTORS u float
-2.89679e-05 -0.171738 -0.325403  0 2.38419e-07 1  -0.000290692 -0.0688512 -0.252397  0 0.5 -0.5  -0.000951171 0.434864 -0.257741  0 -3.57628e-07 1  0 2.38419e-07 -1  0 0.5 0.5  0 0.5 -0.5  0 -2.98023e-07 -1  -0.000192404 -0.256894 0.435266  0.0014531 -0.166969 0.689561  0.00175059 0.689645 0.166964  0.00172919 0.16664 -0.690493  -0.000195265 -0.170109 0.323583  -0.000661731 -0.0689035 0.252583  0 -2.98023e-08 -2.98023e-08  -0.000301123 0.00961164 0.00886348  0 1 3.57628e-07  0.000418425 0.323861 0.171359  -0.000540972 0.326263 -0.170973  0 1 -3.27826e-07  0 -0.5 0.5  0 -1 2.38419e-07  -0.00176501 0.69101 -0.166197  -0.000815511 -0.32589 0.172237  -0.000498831 0.171776 -0.323151  0 -1 -2.38419e-07  0 -0.5 0.5  -0.00168085 -0.689646 0.167121  0.000349164 -0.0088039 -0.00937682  0.00187939 -0.691736 -0.166598  -0.000430048 -0.435649 0.25868  -0.000333488 -0.322063 -0.170299  0.000398636 -0.252206 0.0689053  -0.000119805 -0.00954992 0.00856498  -0.000386477 -0.000552565 0.00177094  -0.000206709 0.17179 0.326619  -0.000129223 0.252988 0.0689349  -0.00167561 0.167215 0.68899  0.000135422 0.434703 0.257455  0.000119328 -0.00113589 -0.000358194  0 0.5 0.5  -0.0017314 -0.166829 -0.690279  0.000237584 0.0088237 -0.0092259  0 -0.5 -0.5  -0.000106812 0.257776 0.434976  0.000250101 0.252335 -0.0683423  1.70469e-05 0.0684949 0.25254  0.000528693 -0.000225484 -0.000877857  0.000408411 0.00187067 -0.000285298  -0.00014472 -0.253189 -0.0689983  -0.000437617 0.069016 -0.253059  0.00195789 -0.435854 -0.258526  0.00105834 0.258533 -0.43553  0 -0.5 -0.5  0 -5.96046e-08 5.96046e-08  -0.00137609 -0.258049 -0.435331  -0.000800431 0.000151694 0.000152588  -3.52859e-05 -0.000100285 -3.69549e-05  0.000182867 3.06368e-05 0.000314236  -2.74181e-06 0.000150561 -0.000171602  0.00102949 -0.000126004 0.000174224  0 0.166666 0.833334  0 0.333333 0.666667  0 0.333333 0.333334  0 0.166667 0.166667  0 -1.78814e-07 0.333334  0 -2.68221e-07 0.666667  0.0144196 0.0922754 0.769523  0.0206852 0.172915 0.580646  -0.000500306 0.411423 0.492718  -0.00140536 0.329834 0.471429  -0.000794962 0.137705 0.163569  -0.000668287 0.221694 0.312931  0.00625122 0.248908 0.629937  -0.000719756 0.275978 0.327517  0.00371872 0.11274 0.46861  0 0.166666 0.5  0 -0.166667 0.166667  0 -0.333334 0.333333  0 -0.333334 0.666667  0 -0.166667 0.833334  -0.000514761 -0.16349 0.13777  -0.000427276 -0.313364 0.221856  -0.00092645 -0.492897 0.411819  -0.00170809 -0.471517 0.330223  -0.0113344 -0.207806 0.756796  -0.0185137 -0.356114 0.49842  -0.000119567 -0.327778 0.275973  -0.00823197 -0.354253 0.582554  -0.0033928 -0.187289 0.443287  0 -0.166667 0.5  -0.000562295 -0.000162452 -0.000196815  -0.00116548 -0.000171989 -0.00021553  -0.000876427 -0.144265 0.0853916  -0.00059846 -0.289111 0.171348  -0.000765055 0.0851794 0.144367  -0.000857204 0.171327 0.289149  -0.00636768 -0.2057 0.319166  0.00621861 0.0238691 0.372721  -0.000801146 0.112241 0.156923  -0.00068 -0.0603223 0.229961  -0.000744611 -0.0454689 0.26935  -0.000844955 -0.157151 0.112198  0.027177 0.104473 0.516859  0.0344334 -0.0374673 0.596131  -0.0314655 -0.259258 0.558662  -0.0254714 -0.351264 0.40935  0.00800169 -0.119923 0.811583  0.00999485 -0.0601187 0.916668  0.0312773 0.0237885 0.689064  -0.0245295 -0.24174 0.664303  0.00219622 -0.0890481 0.541136  0.00147665 -0.120306 0.46148  0.000723422 -0.190405 0.568018  0.000714183 -0.192274 0.445267  0.0257782 0.052709 0.438887  0.0320361 -0.0937216 0.393284  -0.024226 -0.328183 0.319609  -0.0311689 -0.245314 0.347858  0.0324744 -0.0740891 0.496674  0.000496805 -0.136461 0.37969  -0.0312681 -0.261961 0.452722  -0.000505328 0.123823 0.25675  -0.000323355 0.0411972 0.108942  5.02467e-05 1.63317e-05 0.000256658  0.000449181 -0.000251859 0.000405788  -0.000364244 -0.256154 0.12451  -0.000124514 -0.107973 0.0415126  -0.000459313 0.0609725 0.127739  -0.000354946 -0.127435 0.0613886  -0.000408173 -0.0681037 0.188786  9.85861e-05 -0.0843506 0.0233443  0.00052619 -0.166719 0.0487053  0.000617206 -0.324721 0.120412  5.53131e-05 -0.386803 0.183451  0.000288367 -0.0623427 0.107094  7.25985e-05 -0.124418 0.213788  -0.0256698 -0.233502 0.160244  -0.0308824 -0.207446 0.247961  -0.00655681 -0.147707 0.133445  -0.0250773 -0.287855 0.236405  -0.00629777 -0.177691 0.191531  0.000128388 -0.21439 0.0822067  0.000338316 0.0236283 0.0842137  0.00031364 0.048593 0.166827  0.026183 -0.0156319 0.267031  0.0316112 -0.0948723 0.287354  0.000540555 0.119923 0.324649  0.000557303 0.182764 0.386742  -0.000364959 0.0822032 0.214617  0.026662 0.0104291 0.356902  0.00685894 -0.0294602 0.252969  0.00657701 -0.0385119 0.187637  0.0306958 -0.0784837 0.183723  0.0252208 -0.0195872 0.0819465  -0.000109076 0.0307588 0.172675  0.000207543 0.00746586 0.0878414  8.54731e-05 0.0108094 0.0568165  0.000362515 0.00692649 0.0572441  0.0257429 -0.0257377 0.174635  0.000305653 0.0231635 0.114012  0.00715876 -0.0364786 0.122245  0.000431776 -0.0564706 0.0108966  0.000683665 -0.0573106 0.00682655  -0.000365496 -0.172561 0.0313462  -0.000449181 -0.0879111 0.00748464  -0.0306237 -0.154605 0.15739  -0.0248936 -0.0904259 0.0442002  0.000888348 -0.11378 0.0235134  -0.0258523 -0.166995 0.0946721  -0.00656271 -0.107601 0.0806503  -0.000694871 0.000118554 2.58684e-05  -0.000582576 4.14848e-05 9.2566e-05  6.38962e-05 0.000297368 0.00107381  0.000185847 0.000281572 0.00163518  -0.000130177 0.000800371 -0.000222147  -0.000252008 0.00157137 -8.93474e-05  -0.00636339 -0.00356817 0.00152978  0.0062331 0.00184654 -0.00327507  -0.000164032 0.00343457 0.0301768  1.33514e-05 0.000182122 -0.000274181  0.00037539 -0.0269041 0.0320697  0.000208855 -0.029719 0.00372699  0.025053 0.00271206 -0.00794163  0.0318447 0.00939141 -0.00810891  -0.0322766 -0.00758441 0.00942475  -0.024997 -0.00777999 0.0026621  0.000185609 -0.0695411 0.103322  0.00054276 -0.130849 0.208861  0.0314353 -0.043105 0.0840107  -0.031698 -0.0878927 0.0771795  0.000167489 -0.0546983 0.0631564  0.000225663 -0.000382334 -0.000613004  0.000349998 0.103251 -0.0693911  0.000507951 0.209572 -0.130748  0.0251791 0.0439364 -0.0912342  0.031229 0.157638 -0.15544  -0.0252767 0.0826445 -0.0197016  -0.0317916 0.183534 -0.0792442  0.0314242 0.0771646 -0.0880464  -9.69172e-05 0.0631811 -0.0544407  -0.031778 0.0838992 -0.0429581  -0.000499249 0.00668885 -0.0575548  -0.000266194 0.0103005 -0.0563491  0.000913858 -3.28124e-05 8.25524e-05  0.000930071 -0.000261247 -0.000118941  -0.000354648 0.0573694 0.00743791  -6.69956e-05 0.0566752 0.0110582  -9.2864e-05 0.00348878 -0.0297899  9.46522e-05 0.0297585 0.00377786  -0.000121951 0.032491 -0.0274333  -2.71797e-05 0.0840362 0.0229209  9.41753e-05 0.167042 0.0485373  0.000102282 0.172745 0.0309802  -0.000295162 0.0880288 0.00763975  6.74725e-05 0.106926 -0.0623576  -0.000323772 0.214015 -0.124596  -0.0262072 0.267626 -0.015399  -0.0313333 0.289029 -0.0951888  -0.00692451 0.187614 -0.0387713  -0.0257252 0.174581 -0.0254845  -0.00671709 0.122177 -0.036703  -0.000198007 0.114538 0.0232263  0.000258446 0.0234814 -0.0837712  -9.7394e-05 0.0488219 -0.166955  0.0257118 0.16063 -0.234214  0.0311515 0.249551 -0.208202  0.000194311 0.0311566 -0.173078  0.000484228 0.00743813 -0.0884586  -0.000685096 0.0233761 -0.114289  0.026022 0.094969 -0.167752  0.00647271 0.08076 -0.107893  0.00622034 0.133541 -0.147657  0.0301526 0.347983 -0.244657  0.02443 0.320275 -0.328399  -0.0005126 0.120346 -0.325042  0.000140667 0.18362 -0.386948  5.14984e-05 0.041244 -0.108202  0.000317335 0.124432 -0.25672  0.0251949 0.236236 -0.288116  -5.57899e-05 0.0825858 -0.21484  0.00674558 0.191569 -0.177629  0.000382662 0.108357 0.0412515  0.000571728 0.256753 0.123954  -0.000767946 0.324701 0.12027  -0.00052619 0.386938 0.183107  -0.0313654 0.393761 -0.0932181  -0.0254438 0.438917 0.0534759  0.00049758 0.214727 0.0825265  -0.0264223 0.357383 0.0107639  -0.00700212 0.253162 -0.0293986  -0.000276089 0.000205934 -4.80711e-05  0.000149488 0.000131249 -2.44677e-05  0.000776052 0.144418 0.0857981  0.000861883 0.289225 0.171764  0.000589371 0.0857999 -0.144553  0.0004704 0.171833 -0.289311  -0.00634789 0.37275 0.0236456  0.00616026 0.318996 -0.205222  0.00016737 0.0608037 -0.127522  0.00060463 0.230608 -0.0600225  0.00054431 0.189443 -0.0678761  0.000459671 0.12758 0.0610794  0.0255864 0.409798 -0.351538  0.0308826 0.559292 -0.260002  -0.0347254 0.596761 -0.0370243  -0.0275276 0.516963 0.104129  -0.000360966 0.568066 -0.190641  0.000222921 0.445998 -0.192908  0.0309567 0.452544 -0.262096  -0.032737 0.496697 -0.0739473  -0.00036478 0.379589 -0.136838  -0.00110722 0.461779 -0.120372  -0.00615144 0.811158 -0.120189  -0.00769472 0.916654 -0.060493  0.0189025 0.498836 -0.356475  0.0116568 0.757319 -0.207851  -0.0206468 0.58066 0.172694  -0.0145404 0.770209 0.0915218  0.0240049 0.664097 -0.241214  -0.00209117 0.5413 -0.0887933  -0.0313783 0.68906 0.0235018  0.000631571 0.222127 -0.313452  0.000529766 0.137483 -0.163475  0.00146556 8.60691e-05 0.000123024  0.000887394 0.000109375 0.000153899  0.000704765 0.312858 0.222063  0.000641823 0.163452 0.137853  0.000697374 0.112393 -0.15691  0.000935555 0.15685 0.112279  0.000792742 0.269722 -0.0454231  0 0.166667 0.166667  0 0.333333 0.333333  0.000798702 0.49366 0.411624  0.00148416 0.471455 0.330077  0 0.333333 -1.19209e-07  0 0.666667 -2.38419e-07  0 0.666667 0.333333  0 0.833334 0.166666  0 0.5 0.166667  -0.00619936 0.629525 0.249427  -0.00324345 0.468538 0.112643  0.000423193 0.327972 0.275899  0 0.166667 -0.166667  0 0.333333 -0.333334  0 0.666667 -0.333334  0 0.833333 -0.166667  0.000845671 0.411592 -0.493121  0.00185633 0.330093 -0.471914  7.36713e-05 0.276036 -0.327882  0.008394 0.582607 -0.354333  0.00331521 0.443314 -0.187424  0 0.5 -0.166667  0 -0.333333 0  0 -0.666667 -1.78814e-07  0 -0.833334 0.166667  0 -0.666667 0.333333  0.013888 -0.76927 0.0921748  0.0199469 -0.580922 0.172828  0.00346147 -0.46882 0.112846  0.00602174 -0.630516 0.248863  0 -0.5 0.166667  0 -0.166667 -0.166667  0 -0.333333 -0.333334  0 -0.666667 -0.333334  0 -0.833334 -0.166667  -0.000353128 -0.137969 -0.16346  -0.000501513 -0.221982 -0.313111  -0.000770569 -0.411518 -0.493105  -0.00178087 -0.330085 -0.471873  -0.0115605 -0.756904 -0.207521  -0.0190021 -0.498783 -0.356226  1.131e-05 -0.275933 -0.327754  -0.00836612 -0.582361 -0.354334  -0.00327647 -0.443057 -0.187357  0 -0.5 -0.166667  -0.0248586 -0.409025 -0.351016  -0.0302242 -0.559337 -0.259676  0.00731313 -0.812186 -0.119253  0.00863068 -0.916561 -0.0587775  -0.00610799 -0.319058 -0.205532  0.00582474 -0.372607 0.0239196  0.0351911 -0.59602 -0.0365226  0.0284487 -0.516673 0.104657  0.000740051 -0.461525 -0.119782  0.0314431 -0.689162 0.023855  0.00245807 -0.541075 -0.0889665  -0.0239266 -0.664395 -0.242271  -0.000717103 -0.171705 -0.289347  -0.000742406 -0.0855111 -0.144386  -0.000516206 -0.112086 -0.156973  -0.000825375 -0.26954 -0.0456642  -0.000810295 -0.230102 -0.0602159  -0.000428855 -0.124342 -0.255713  -0.000116229 -0.041658 -0.107677  -0.000193119 -0.0613601 -0.127463  -0.000258148 -0.189067 -0.068054  -0.0243828 -0.320102 -0.328133  -0.0312943 -0.348223 -0.24428  7.51019e-06 -0.568545 -0.190242  -0.000483155 -0.445333 -0.192254  0.0260448 -0.438666 0.052622  0.0320077 -0.392973 -0.0935934  -0.0311211 -0.452754 -0.261712  0.0330771 -0.496364 -0.0737563  0.000546038 -0.379558 -0.136263  -0.00075984 -0.183608 -0.386338  -0.000138998 -0.119897 -0.324165  -0.0256599 -0.160209 -0.233505  -0.0309177 -0.248146 -0.207457  0.000876188 -0.0480813 -0.166597  9.03606e-05 -0.022534 -0.083334  0.000462413 -0.213612 -0.124238  0.000302434 -0.10692 -0.0619425  0.000604272 -0.0823979 -0.214696  -0.00639725 -0.133586 -0.147467  -0.00636375 -0.191037 -0.177588  -0.0250709 -0.235399 -0.287511  0.0260491 -0.266732 -0.0152589  0.0310857 -0.286946 -0.0947274  0.0266944 -0.356953 0.0107528  0.00650692 -0.253271 -0.0291375  0.00670123 -0.186984 -0.038229  0.0305394 -0.183193 -0.0786057  0.0248574 -0.0821459 -0.0193632  0.00711489 -0.121967 -0.0363639  0.0253532 -0.174684 -0.0257259  7.20024e-05 -0.0107608 -0.0563554  0.000794888 -0.00694644 -0.0576448  -0.000331402 -0.0310867 -0.172382  1.56164e-05 -0.00734824 -0.0874835  -0.0308315 -0.157182 -0.154385  -0.0250628 -0.0440047 -0.0901454  0.00090754 -0.0233493 -0.113778  -0.0259268 -0.0944178 -0.166916  -0.00644648 -0.0803435 -0.107467  -0.0242666 -0.00200647 -0.00764045  -0.0315163 -0.00921822 -0.00837271  7.4625e-05 -0.103523 -0.069736  -0.000163913 -0.208889 -0.130067  -0.0062815 -0.000908077 -0.00339583  0.00602806 0.00383443 0.0020902  0.0327109 0.00758749 0.00995945  0.0258363 0.00788116 0.00309458  -0.000532985 0.000597954 -1.36942e-05  0.0318919 -0.0837595 -0.0432606  0.000401855 -0.0629622 -0.0546008  -0.0312481 -0.0767195 -0.0882126  0.00026381 -0.00116909 6.67572e-05  7.28369e-05 -0.000678897 3.21269e-05  0.000220299 -0.0033927 -0.0293087  0.000277042 -0.0321339 -0.026892  -1.64509e-05 0.000576377 0.000115097  -0.000348449 -0.00756991 0.057618  -0.00018394 -0.0112587 0.056404  0.000144839 -0.0035398 0.0295779  -5.16176e-05 0.0276358 0.032167  -0.0246997 0.019997 0.081784  -0.0315045 0.0784069 0.183219  -0.000465155 0.0692842 0.102953  -0.000534415 0.130852 0.209165  0.0253229 0.0917038 0.0437656  0.0312392 0.155564 0.157433  -0.0315013 0.0430886 0.0835863  0.031859 0.0880883 0.0772774  -2.08616