# vtk DataFile Version 5.1
vtk output
ASCII

DATASET UNSTRUCTURED_GRID
POINTS 931 float
0 0 0
0.166667 0 0
0.333333 0 0
0.5 0 0
0.666667 0 0
0.833333 0 0
1 0 0
1.16667 0 0
1.33333 0 0
1.5 0 0
1.66667 0 0
1.83333 0 0
2 0 0
2.16667 0 0
2.33333 0 0
2.5 0 0
2.66667 0 0
2.83333 0 0
3 0 0
0 0.166667 0
0.166667 0.166667 0
0.333333 0.166667 0
0.5 0.166667 0
0.666667 0.166667 0
0.833333 0.166667 0
1 0.166667 0
1.16667 0.166667 0
1.33333 0.166667 0
1.5 0.166667 0
1.66667 0.166667 0
1.83333 0.166667 0
2 0.166667 0
2.16667 0.166667 0
2.33333 0.166667 0
2.5 0.166667 0
2.66667 0.166667 0
2.83333 0.166667 0
3 0.166667 0
0 0.333333 0
0.166667 0.333333 0
0.333333 0.333333 0
0.5 0.333333 0
0.666667 0.333333 0
0.833333 0.333333 0
1 0.333333 0
1.16667 0.333333 0
1.33333 0.333333 0
1.5 0.333333 0
1.66667 0.333333 0
1.83333 0.333333 0
2 0.333333 0
2.16667 0.333333 0
2.33333 0.333333 0
2.5 0.333333 0
2.66667 0.333333 0
2.83333 0.333333 0
3 0.333333 0
0 0.5 0
0.166667 0.5 0
0.333333 0.5 0
0.5 0.5 0
0.666667 0.5 0
0.833333 0.5 0
1 0.5 0
1.16667 0.5 0
1.33333 0.5 0
1.5 0.5 0
1.66667 0.5 0
1.83333 0.5 0
2 0.5 0
2.16667 0.5 0
2.33333 0.5 0
2.5 0.5 0
2.66667 0.5 0
2.83333 0.5 0
3 0.5 0
0 0.666667 0
0.166667 0.666667 0
0.333333 0.666667 0
0.5 0.666667 0
0.666667 0.666667 0
0.833333 0.666667 0
1 0.666667 0
1.16667 0.666667 0
1.33333 0.666667 0
1.5 0.666667 0
1.66667 0.666667 0
1.83333 0.666667 0
2 0.666667 0
2.16667 0.666667 0
2.33333 0.666667 0
2.5 0.666667 0
2.66667 0.666667 0
2.83333 0.666667 0
3 0.666667 0
0 0.833333 0
0.166667 0.833333 0
0.333333 0.833333 0
0.5 0.833333 0
0.666667 0.833333 0
0.833333 0.833333 0
1 0.833333 0
1.16667 0.833333 0
1.33333 0.833333 0
1.5 0.833333 0
1.66667 0.833333 0
1.83333 0.833333 0
2 0.833333 0
2.16667 0.833333 0
2.33333 0.833333 0
2.5 0.833333 0
2.66667 0.833333 0
2.83333 0.833333 0
3 0.833333 0
0 1 0
0.166667 1 0
0.333333 1 0
0.5 1 0
0.666667 1 0
0.833333 1 0
1 1 0
1.16667 1 0
1.33333 1 0
1.5 1 0
1.66667 1 0
1.83333 1 0
2 1 0
2.16667 1 0
2.33333 1 0
2.5 1 0
2.66667 1 0
2.83333 1 0
3 1 0
0 0 0.166667
0.166667 0 0.166667
0.333333 0 0.166667
0.5 0 0.166667
0.666667 0 0.166667
0.833333 0 0.166667
1 0 0.166667
1.16667 0 0.166667
1.33333 0 0.166667
1.5 0 0.166667
1.66667 0 0.166667
1.83333 0 0.166667
2 0 0.166667
2.16667 0 0.166667
2.33333 0 0.166667
2.5 0 0.166667
2.66667 0 0.166667
2.83333 0 0.166667
3 0 0.166667
0 0.166667 0.166667
0.166667 0.166667 0.166667
0.333333 0.166667 0.166667
0.5 0.166667 0.166667
0.666667 0.166667 0.166667
0.833333 0.166667 0.166667
1 0.166667 0.166667
1.16667 0.166667 0.166667
1.33333 0.166667 0.166667
1.5 0.166667 0.166667
1.66667 0.166667 0.166667
1.83333 0.166667 0.166667
2 0.166667 0.166667
2.16667 0.166667 0.166667
2.33333 0.166667 0.166667
2.5 0.166667 0.166667
2.66667 0.166667 0.166667
2.83333 0.166667 0.166667
3 0.166667 0.166667
0 0.333333 0.166667
0.166667 0.333333 0.166667
0.333333 0.333333 0.166667
0.5 0.333333 0.166667
0.666667 0.333333 0.166667
0.833333 0.333333 0.166667
1 0.333333 0.166667
1.16667 0.333333 0.166667
1.33333 0.333333 0.166667
1.5 0.333333 0.166667
1.66667 0.333333 0.166667
1.83333 0.333333 0.166667
2 0.333333 0.166667
2.16667 0.333333 0.166667
2.33333 0.333333 0.166667
2.5 0.333333 0.166667
2.66667 0.333333 0.166667
2.83333 0.333333 0.166667
3 0.333333 0.166667
0 0.5 0.166667
0.166667 0.5 0.166667
0.333333 0.5 0.166667
0.5 0.5 0.166667
0.666667 0.5 0.166667
0.833333 0.5 0.166667
1 0.5 0.166667
1.16667 0.5 0.166667
1.33333 0.5 0.166667
1.5 0.5 0.166667
1.66667 0.5 0.166667
1.83333 0.5 0.166667
2 0.5 0.166667
2.16667 0.5 0.166667
2.33333 0.5 0.166667
2.5 0.5 0.166667
2.66667 0.5 0.166667
2.83333 0.5 0.166667
3 0.5 0.166667
0 0.666667 0.166667
0.166667 0.666667 0.166667
0.333333 0.666667 0.166667
0.5 0.666667 0.166667
0.666667 0.666667 0.166667
0.833333 0.666667 0.166667
1 0.666667 0.166667
1.16667 0.666667 0.166667
1.33333 0.666667 0.166667
1.5 0.666667 0.166667
1.66667 0.666667 0.166667
1.83333 0.666667 0.166667
2 0.666667 0.166667
2.16667 0.666667 0.166667
2.33333 0.666667 0.166667
2.5 0.666667 0.166667
2.66667 0.666667 0.166667
2.83333 0.666667 0.166667
3 0.666667 0.166667
0 0.833333 0.166667
0.166667 0.833333 0.166667
0.333333 0.833333 0.166667
0.5 0.833333 0.166667
0.666667 0.833333 0.166667
0.833333 0.833333 0.166667
1 0.833333 0.166667
1.16667 0.833333 0.166667
1.33333 0.833333 0.166667
1.5 0.833333 0.166667
1.66667 0.833333 0.166667
1.83333 0.833333 0.166667
2 0.833333 0.166667
2.16667 0.833333 0.166667
2.33333 0.833333 0.166667
2.5 0.833333 0.166667
2.66667 0.833333 0.166667
2.83333 0.833333 0.166667
3 0.833333 0.166667
0 1 0.166667
0.166667 1 0.166667
0.333333 1 0.166667
0.5 1 0.166667
0.666667 1 0.166667
0.833333 1 0.166667
1 1 0.166667
1.16667 1 0.166667
1.33333 1 0.166667
1.5 1 0.166667
1.66667 1 0.166667
1.83333 1 0.166667
2 1 0.166667
2.16667 1 0.166667
2.33333 1 0.166667
2.5 1 0.166667
2.66667 1 0.166667
2.83333 1 0.166667
3 1 0.166667
0 0 0.333333
0.166667 0 0.333333
0.333333 0 0.333333
0.5 0 0.333333
0.666667 0 0.333333
0.833333 0 0.333333
1 0 0.333333
1.16667 0 0.333333
1.33333 0 0.333333
1.5 0 0.333333
1.66667 0 0.333333
1.83333 0 0.333333
2 0 0.333333
2.16667 0 0.333333
2.33333 0 0.333333
2.5 0 0.333333
2.66667 0 0.333333
2.83333 0 0.333333
3 0 0.333333
0 0.166667 0.333333
0.166667 0.166667 0.333333
0.333333 0.166667 0.333333
0.5 0.166667 0.333333
0.666667 0.166667 0.333333
0.833333 0.166667 0.333333
1 0.166667 0.333333
1.16667 0.166667 0.333333
1.33333 0.166667 0.333333
1.5 0.166667 0.333333
1.66667 0.166667 0.333333
1.83333 0.166667 0.333333
2 0.166667 0.333333
2.16667 0.166667 0.333333
2.33333 0.166667 0.333333
2.5 0.166667 0.333333
2.66667 0.166667 0.333333
2.83333 0.166667 0.333333
3 0.166667 0.333333
0 0.333333 0.333333
0.166667 0.333333 0.333333
0.333333 0.333333 0.333333
0.5 0.333333 0.333333
0.666667 0.333333 0.333333
0.833333 0.333333 0.333333
1 0.333333 0.333333
1.16667 0.333333 0.333333
1.33333 0.333333 0.333333
1.5 0.333333 0.333333
1.66667 0.333333 0.333333
1.83333 0.333333 0.333333
2 0.333333 0.333333
2.16667 0.333333 0.333333
2.33333 0.333333 0.333333
2.5 0.333333 0.333333
2.66667 0.333333 0.333333
2.83333 0.333333 0.333333
3 0.333333 0.333333
0 0.5 0.333333
0.166667 0.5 0.333333
0.333333 0.5 0.333333
0.5 0.5 0.333333
0.666667 0.5 0.333333
0.833333 0.5 0.333333
1 0.5 0.333333
1.16667 0.5 0.333333
1.33333 0.5 0.333333
1.5 0.5 0.333333
1.66667 0.5 0.333333
1.83333 0.5 0.333333
2 0.5 0.333333
2.16667 0.5 0.333333
2.33333 0.5 0.333333
2.5 0.5 0.333333
2.66667 0.5 0.333333
2.83333 0.5 0.333333
3 0.5 0.333333
0 0.666667 0.333333
0.166667 0.666667 0.333333
0.333333 0.666667 0.333333
0.5 0.666667 0.333333
0.666667 0.666667 0.333333
0.833333 0.666667 0.333333
1 0.666667 0.333333
1.16667 0.666667 0.333333
1.33333 0.666667 0.333333
1.5 0.666667 0.333333
1.66667 0.666667 0.333333
1.83333 0.666667 0.333333
2 0.666667 0.333333
2.16667 0.666667 0.333333
2.33333 0.666667 0.333333
2.5 0.666667 0.333333
2.66667 0.666667 0.333333
2.83333 0.666667 0.333333
3 0.666667 0.333333
0 0.833333 0.333333
0.166667 0.833333 0.333333
0.333333 0.833333 0.333333
0.5 0.833333 0.333333
0.666667 0.833333 0.333333
0.833333 0.833333 0.333333
1 0.833333 0.333333
1.16667 0.833333 0.333333
1.33333 0.833333 0.333333
1.5 0.833333 0.333333
1.66667 0.833333 0.333333
1.83333 0.833333 0.333333
2 0.833333 0.333333
2.16667 0.833333 0.333333
2.33333 0.833333 0.333333
2.5 0.833333 0.333333
2.66667 0.833333 0.333333
2.83333 0.833333 0.333333
3 0.833333 0.333333
0 1 0.333333
0.166667 1 0.333333
0.333333 1 0.333333
0.5 1 0.333333
0.666667 1 0.333333
0.833333 1 0.333333
1 1 0.333333
1.16667 1 0.333333
1.33333 1 0.333333
1.5 1 0.333333
1.66667 1 0.333333
1.83333 1 0.333333
2 1 0.333333
2.16667 1 0.333333
2.33333 1 0.333333
2.5 1 0.333333
2.66667 1 0.333333
2.83333 1 0.333333
3 1 0.333333
0 0 0.5
0.166667 0 0.5
0.333333 0 0.5
0.5 0 0.5
0.666667 0 0.5
0.833333 0 0.5
1 0 0.5
1.16667 0 0.5
1.33333 0 0.5
1.5 0 0.5
1.66667 0 0.5
1.83333 0 0.5
2 0 0.5
2.16667 0 0.5
2.33333 0 0.5
2.5 0 0.5
2.66667 0 0.5
2.83333 0 0.5
3 0 0.5
0 0.166667 0.5
0.166667 0.166667 0.5
0.333333 0.166667 0.5
0.5 0.166667 0.5
0.666667 0.166667 0.5
0.833333 0.166667 0.5
1 0.166667 0.5
1.16667 0.166667 0.5
1.33333 0.166667 0.5
1.5 0.166667 0.5
1.66667 0.166667 0.5
1.83333 0.166667 0.5
2 0.166667 0.5
2.16667 0.166667 0.5
2.33333 0.166667 0.5
2.5 0.166667 0.5
2.66667 0.166667 0.5
2.83333 0.166667 0.5
3 0.166667 0.5
0 0.333333 0.5
0.166667 0.333333 0.5
0.333333 0.333333 0.5
0.5 0.333333 0.5
0.666667 0.333333 0.5
0.833333 0.333333 0.5
1 0.333333 0.5
1.16667 0.333333 0.5
1.33333 0.333333 0.5
1.5 0.333333 0.5
1.66667 0.333333 0.5
1.83333 0.333333 0.5
2 0.333333 0.5
2.16667 0.333333 0.5
2.33333 0.333333 0.5
2.5 0.333333 0.5
2.66667 0.333333 0.5
2.83333 0.333333 0.5
3 0.333333 0.5
0 0.5 0.5
0.166667 0.5 0.5
0.333333 0.5 0.5
0.5 0.5 0.5
0.666667 0.5 0.5
0.833333 0.5 0.5
1 0.5 0.5
1.16667 0.5 0.5
1.33333 0.5 0.5
1.5 0.5 0.5
1.66667 0.5 0.5
1.83333 0.5 0.5
2 0.5 0.5
2.16667 0.5 0.5
2.33333 0.5 0.5
2.5 0.5 0.5
2.66667 0.5 0.5
2.83333 0.5 0.5
3 0.5 0.5
0 0.666667 0.5
0.166667 0.666667 0.5
0.333333 0.666667 0.5
0.5 0.666667 0.5
0.666667 0.666667 0.5
0.833333 0.666667 0.5
1 0.666667 0.5
1.16667 0.666667 0.5
1.33333 0.666667 0.5
1.5 0.666667 0.5
1.66667 0.666667 0.5
1.83333 0.666667 0.5
2 0.666667 0.5
2.16667 0.666667 0.5
2.33333 0.666667 0.5
2.5 0.666667 0.5
2.66667 0.666667 0.5
2.83333 0.666667 0.5
3 0.666667 0.5
0 0.833333 0.5
0.166667 0.833333 0.5
0.333333 0.833333 0.5
0.5 0.833333 0.5
0.666667 0.833333 0.5
0.833333 0.833333 0.5
1 0.833333 0.5
1.16667 0.833333 0.5
1.33333 0.833333 0.5
1.5 0.833333 0.5
1.66667 0.833333 0.5
1.83333 0.833333 0.5
2 0.833333 0.5
2.16667 0.833333 0.5
2.33333 0.833333 0.5
2.5 0.833333 0.5
2.66667 0.833333 0.5
2.83333 0.833333 0.5
3 0.833333 0.5
0 1 0.5
0.166667 1 0.5
0.333333 1 0.5
0.5 1 0.5
0.666667 1 0.5
0.833333 1 0.5
1 1 0.5
1.16667 1 0.5
1.33333 1 0.5
1.5 1 0.5
1.66667 1 0.5
1.83333 1 0.5
2 1 0.5
2.16667 1 0.5
2.33333 1 0.5
2.5 1 0.5
2.66667 1 0.5
2.83333 1 0.5
3 1 0.5
0 0 0.666667
[...]
POINT_DATA 931
SCALARS weights float 1
LOOKUP_TABLE default
0.385803 1.15741 1.15741 1.15741 1.15741 1.15741 1.15741 1.15741 1.15741 1.15741 1.15741 1.15741 1.15741 1.15741 1.15741 1.15741 1.15741 1.15741 0.771605 0.771605 2.31482 2.31482 2.31482 2.31482 2.31482 2.31482 2.31482 2.31481 2.31482 2.31482 2.31482 2.31481 2.31482 2.31482 2.31481 2.31482 2.31482 1.54321 0.771605 2.31482 2.31482 2.31481 2.31482 2.31482 2.31482 2.31482 2.31481 2.31482 2.31482 2.31482 2.31481 2.31482 2.31482 2.31481 2.31482 2.31482 1.54321 0.771605 2.31482 2.31482 2.31481 2.31482 2.31482 2.31482 2.31482 2.31481 2.31482 2.31482 2.31482 2.31481 2.31482 2.31482 2.31481 2.31482 2.31482 1.54321 0.771605 2.31482 2.31482 2.31482 2.31482 2.31482 2.31482 2.31482 2.31481 2.31482 2.31482 2.31482 2.31481 2.31482 2.31482 2.31481 2.31482 2.31482 1.54321 0.771605 2.31481 2.31481 2.31481 2.31481 2.31482 2.31481 2.31482 2.31481 2.31482 2.31482 2.31481 2.31481 2.31482 2.31482 2.31481 2.31482 2.31482 1.54321 0.385802 1.15741 1.15741 1.15741 1.15741 1.15741 1.15741 1.15741 1.15741 1.15741 1.15741 1.15741 1.15741 1.15741 1.15741 1.15741 1.15741 1.15741 0.771605 1.15741 2.31482 2.31482 2.31482 2.31482 2.31481 2.31482 2.31482 2.31481 2.31482 2.31482 2.31481 2.31481 2.31482 2.31481 2.31481 2.31482 2.31482 1.15741 2.31482 4.62963 4.62963 4.62963 4.62963 4.62963 4.62963 4.62963 4.62963 4.62963 4.62963 4.62963 4.62963 4.62963 4.62963 4.62963 4.62963 4.62963 2.31482 2.31482 4.62963 4.62963 4.62963 4.62963 4.62963 4.62963 4.62963 4.62963 4.62963 4.62963 4.62963 4.62963 4.62963 4.62963 4.62963 4.62963 4.62963 2.31482 2.31482 4.62963 4.62963 4.62963 4.62963 4.62963 4.62963 4.62963 4.62963 4.62963 4.62963 4.62963 4.62963 4.62963 4.62963 4.62963 4.62963 4.62963 2.31482 2.31482 4.62963 4.62963 4.62963 4.62963 4.62963 4.62963 4.62963 4.62963 4.62963 4.62963 4.62963 4.62963 4.62963 4.62963 4.62963 4.62963 4.62963 2.31482 2.31481 4.62963 4.62963 4.62963 4.62963 4.62963 4.62963 4.62963 4.62963 4.62963 4.62963 4.62963 4.62963 4.62963 4.62963 4.62963 4.62963 4.62963 2.31482 1.15741 2.31481 2.31481 2.31481 2.31481 2.31481 2.31481 2.31481 2.31481 2.31482 2.31482 2.31481 2.31481 2.31482 2.31481 2.31481 2.31482 2.31482 1.15741 1.15741 2.31481 2.31481 2.31481 2.31482 2.31481 2.31482 2.31482 2.31481 2.31482 2.31482 2.31481 2.31481 2.31482 2.31481 2.31481 2.31482 2.31482 1.15741 2.31481 4.62963 4.62963 4.62963 4.62963 4.62963 4.62963 4.62963 4.62963 4.62963 4.62963 4.62963 4.62963 4.62963 4.62963 4.62963 4.62963 4.62963 2.31482 2.31481 4.62963 4.62963 4.62963 4.62963 4.62963 4.62963 4.62963 4.62963 4.62963 4.62963 4.62963 4.62963 4.62963 4.62963 4.62963 4.62963 4.62963 2.31482 2.31482 4.62963 4.62963 4.62963 4.62963 4.62963 4.62963 4.62963 4.62963 4.62963 4.62963 4.62963 4.62963 4.62963 4.62963 4.62963 4.62963 4.62963 2.31482 2.31482 4.62963 4.62963 4.62963 4.62963 4.62963 4.62963 4.62963 4.62963 4.62963 4.62963 4.62963 4.62963 4.62963 4.62963 4.62963 4.62963 4.62963 2.31482 2.31481 4.62963 4.62963 4.62963 4.62963 4.62963 4.62963 4.62963 4.62963 4.62963 4.62963 4.62963 4.62963 4.62963 4.62963 4.62963 4.62963 4.62963 2.31482 1.15741 2.31481 2.31481 2.31481 2.31481 2.31481 2.31481 2.31481 2.31481 2.31481 2.31482 2.31481 2.31481 2.31482 2.31481 2.31481 2.31481 2.31481 1.15741 1.15741 2.31482 2.31481 2.31481 2.31482 2.31482 2.31482 2.31482 2.31481 2.31482 2.31482 2.31481 2.31481 2.31482 2.31482 2.31481 2.31482 2.31482 1.15741 2.31482 4.62963 4.62963 4.62963 4.62963 4.62963 4.62963 4.62963 4.62963 4.62963 4.62963 4.62963 4.62963 4.62963 4.62963 4.62963 4.62963 4.62963 2.31482 2.31481 4.62963 4.62963 4.62963 4.62963 4.62963 4.62963 4.62963 4.62963 4.62963 4.62963 4.62963 4.62963 4.62963 4.62963 4.62963 4.62963 4.62963 2.31482 2.31481 4.62963 4.62963 4.62963 4.62963 4.62963 4.62963 4.62963 4.62963 4.62963 4.62963 4.62963 4.62963 4.62963 4.62963 4.62963 4.62963 4.62963 2.31482 2.31482 4.62963 4.62963 4.62963 4.62963 4.62963 4.62963 4.62963 4.62963 4.62963 4.62963 4.62963 4.62963 4.62963 4.62963 4.62963 4.62963 4.62963 2.31482 2.31481 4.62963 4.62963 4.62963 4.62963 4.62963 4.62963 4.62963 4.62963 4.62963 4.62963 4.62963 4.62963 4.62963 4.62963 4.62963 4.62963 4.62963 2.31482 1.15741 2.31481 2.31481 2.31481 2.31481 2.31481 2.31481 2.31481 2.31481 2.31482 2.31481 2.31481 2.31481 2.31482 2.31481 2.31481 2.31481 2.31481 1.15741 1.15741 2.31482 2.31482 2.31482 2.31482 2.31482 2.31482 2.31482 2.31482 2.31482 2.31482 2.31482 2.31482 2.31482 2.31482 2.31481 2.31482 2.31482 1.15741 2.31482 4.62963 4.62963 4.62963 4.62963 4.62963 4.62963 4.62963 4.62963 4.62963 4.62963 4.62963 4.62963 4.62963 4.62963 4.62963 4.62963 4.62963 2.31482 2.31482 4.62963 4.62963 4.62963 4.62963 4.62963 4.62963 4.62963 4.62963 4.62963 4.62963 4.62963 4.62963 4.62963 4.62963 4.62963 4.62963 4.62963 2.31482 2.31482 4.62963 4.62963 4.62963 4.62963 4.62963 4.62963 4.62963 4.62963 4.62963 4.62963 4.62963 4.62963 4.62963 4.62963 4.62963 4.62963 4.62963 2.31482 2.31482 4.62963 4.62963 4.62963 4.62963 4.62963 4.62963 4.62963 4.62963 4.62963 4.62963 4.62963 4.62963 4.62963 4.62963 4.62963 4.62963 4.62963 2.31482 2.31482 4.62963 4.62963 4.62963 4.62963 4.62963 4.62963 4.62963 4.62963 4.62963 4.62963 4.62963 4.62963 4.62963 4.62963 4.62963 4.62963 4.62963 2.31482 1.15741 2.31481 2.31481 2.31481 2.31481 2.31481 2.31482 2.31481 2.31481 2.31482 2.31482 2.31481 2.31481 2.31482 2.31481 2.31481 2.31482 2.31482 1.15741 1.15741 2.31481 2.31481 2.31481 2.31482 2.31482 2.31482 2.31482 2.31481 2.31482 2.31482 2.31481 2.31481 2.31482 2.31482 2.31481 2.31482 2.31482 1.15741 2.31482 4.62963 4.62963 4.62963 4.62963 4.62963 4.62963 4.62963 4.62963 4.62963 4.62963 4.62963 4.62963 4.62963 4.62963 4.62963 4.62963 4.62963 2.31482 2.31481 4.62963 4.62963 4.62963 4.62963 4.62963 4.62963 4.62963 4.62963 4.62963 4.62963 4.62963 4.62963 4.62963 4.62963 4.62963 4.62963 4.62963 2.31482 2.31482 4.62963 4.62963 4.62963 4.62963 4.62963 4.62963 4.62963 4.62963 4.62963 4.62963 4.62963 4.62963 4.62963 4.62963 4.62963 4.62963 4.62963 2.31482 2.31482 4.62963 4.62963 4.62963 4.62963 4.62963 4.62963 4.62963 4.62963 4.62963 4.62963 4.62963 4.62963 4.62963 4.62963 4.62963 4.62963 4.62963 2.31482 2.31481 4.62963 4.62963 4.62963 4.62963 4.62963 4.62963 4.62963 4.62963 4.62963 4.62963 4.62963 4.62963 4.62963 4.62963 4.62963 4.62963 4.62963 2.31482 1.15741 2.31481 2.31481 2.31481 2.31481 2.31481 2.31481 2.31481 2.31481 2.31481 2.31481 2.31481 2.31481 2.31482 2.31481 2.31481 2.31481 2.31481 1.15741 0.771605 1.15741 1.15741 1.15741 1.15741 1.15741 1.15741 1.15741 1.15741 1.15741 1.15741 1.15741 1.15741 1.15741 1.15741 1.15741 1.15741 1.15741 0.385803 1.54321 2.31481 2.31481 2.31481 2.31481 2.31481 2.31482 2.31481 2.31481 2.31482 2.31482 2.31481 2.31481 2.31482 2.31481 2.31481 2.31482 2.31482 0.771605 1.54321 2.31481 2.31481 2.31481 2.31481 2.31481 2.31482 2.31481 2.31481 2.31481 2.31481 2.31481 2.31481 2.31482 2.31481 2.31481 2.31481 2.31481 0.771605 1.54321 2.31481 2.31481 2.31481 2.31481 2.31481 2.31482 2.31481 2.31481 2.31482 2.31481 2.31481 2.31481 2.31482 2.31481 2.31481 2.31481 2.31481 0.771605 1.54321 2.31481 2.31481 2.31481 2.31481 2.31481 2.31482 2.31481 2.31481 2.31482 2.31482 2.31481 2.31481 2.31482 2.31481 2.31481 2.31482 2.31482 0.771605 1.54321 2.31481 2.31481 2.31481 2.31481 2.31481 2.31482 2.31481 2.31481 2.31481 2.31481 2.31481 2.31481 2.31482 2.31481 2.31481 2.31481 2.31481 0.771605 0.771605 1.15741 1.15741 1.15741 1.15741 1.15741 1.15741 1.15741 1.15741 1.15741 1.15741 1.15741 1.15741 1.15741 1.15741 1.15741 1.15741 1.15741 0.385802 
VECTORS u float
0 -2.98023e-07 1  0.00266907 -0.0648951 0.916174  0.00909075 -0.127403 0.810326  0.0108921 -0.172988 0.693107  0.00902241 -0.196656 0.570908  0.0056659 -0.198099 0.447507  0.00231063 -0.17792 0.326157  -0.000436425 -0.136998 0.210105  -0.00261259 -0.0764323 0.102887  -0.00431585 0.00194728 0.00785925  -0.00568724 0.0957858 -0.0720525  -0.00678849 0.202188 -0.134361  -0.00768983 0.317876 -0.177119  -0.00841665 0.439331 -0.198961  -0.0088625 0.563079 -0.199215  -0.00882244 0.685494 -0.177798  -0.00770473 0.803089 -0.135252  -0.00436878 0.911617 -0.073429  0 1 -2.98023e-07  0 -0.166667 0.833333  -0.00761412 -0.21093 0.751904  -0.0146575 -0.242389 0.65845  -0.0190509 -0.260161 0.557449  -0.0222241 -0.260888 0.453541  -0.0247675 -0.243549 0.35066  -0.0267354 -0.208501 0.252154  -0.0281005 -0.156827 0.160795  -0.0291855 -0.0898902 0.07977  -0.0300422 -0.00976489 0.0116978  -0.030704 0.0811229 -0.0413373  -0.0311112 0.179959 -0.0776891  -0.031213 0.283672 -0.0961179  -0.0308263 0.389096 -0.0959867  -0.0296602 0.49296 -0.0771568  -0.0270605 0.591784 -0.0399449  -0.022094 0.682012 0.0145936  -0.0134277 0.760904 0.0839387  0 0.833334 0.166666  0 -0.333334 0.666667  -0.00587822 -0.354302 0.580287  -0.0125106 -0.359125 0.493997  -0.0169781 -0.349488 0.40546  -0.0195562 -0.325032 0.318058  -0.0210583 -0.285735 0.235313  -0.0219169 -0.23253 0.160208  -0.0223118 -0.166812 0.095157  -0.0225835 -0.0906228 0.042577  -0.0227164 -0.0063715 0.00413231  -0.0226904 0.0833727 -0.0188867  -0.0224345 0.175745 -0.0258183  -0.0218157 0.267849 -0.0163619  -0.020709 0.356741 0.00925131  -0.0188639 0.439565 0.0502112  -0.0160382 0.513573 0.104987  -0.0120611 0.576527 0.17139  -0.00687695 0.627626 0.246845  0 0.666667 0.333333  0 -0.5 0.5  -0.000519648 -0.493901 0.411194  -0.00170565 -0.471416 0.330337  -0.00208542 -0.434361 0.252646  -0.00181788 -0.384058 0.180979  -0.00133014 -0.322019 0.118498  -0.000809312 -0.250066 0.0675639  -0.000532031 -0.170069 0.0301106  -0.000278115 -0.0847656 0.00717486  -5.14984e-05 0.00316113 -0.000349601  0.00021553 0.0909933 0.00766584  0.00059402 0.175923 0.0309973  0.0011065 0.255243 0.0688776  0.00175643 0.326569 0.119879  0.00243402 0.387694 0.18231  0.00299144 0.436818 0.25385  0.00301719 0.472603 0.33192  0.00204659 0.493883 0.413837  0 0.5 0.5  0 -0.666667 0.333333  0.00511493 -0.629919 0.247993  0.0115325 -0.578391 0.17218  0.0162926 -0.513889 0.104349  0.0190635 -0.438171 0.048587  0.0207198 -0.354112 0.00714628  0.0218408 -0.264376 -0.0187041  0.0221525 -0.171458 -0.0280163  0.0223941 -0.0784253 -0.020916  0.0225496 0.0117651 0.00238505  0.0226134 0.0963268 0.0411508  0.0226414 0.172603 0.0939872  0.022548 0.238325 0.159146  0.0221777 0.291565 0.234502  0.0213046 0.331057 0.317472  0.0194099 0.355765 0.405349  0.0157018 0.364983 0.495167  0.00931478 0.35794 0.583562  0 0.333334 0.666667  0 -0.833334 0.166666  0.0106702 -0.763599 0.0898053  0.021831 -0.684988 0.0181378  0.0266262 -0.593521 -0.0385394  0.0278724 -0.493657 -0.0770059  0.028469 -0.389154 -0.096842  0.0293102 -0.283041 -0.0979051  0.0294541 -0.178524 -0.0800114  0.0295482 -0.0787741 -0.0440646  0.0294712 0.0128963 0.00878317  0.0293084 0.0937687 0.0767362  0.0289391 0.161281 0.157651  0.0282705 0.21356 0.248841  0.0271177 0.24918 0.34752  0.025167 0.267347 0.450659  0.0220551 0.267922 0.55496  0.0174146 0.251602 0.657017  0.0108106 0.218944 0.752823  0 0.166667 0.833334  0 -1 -2.98023e-07  0.00625524 -0.915544 -0.0657966  0.00730649 -0.808497 -0.129109  0.0040738 -0.690423 -0.173371  0.0016942 -0.567624 -0.196579  0.00112027 -0.443468 -0.198248  0.00175357 -0.321089 -0.178103  0.00230598 -0.204192 -0.136527  0.00211501 -0.09668 -0.074911  0.00189507 -0.00181341 0.00445771  0.00153708 0.0775503 0.0990775  0.000970244 0.138987 0.205927  -2.09808e-05 0.18079 0.321676  -0.00163174 0.201826 0.442872  -0.00411272 0.201453 0.566235  -0.0075016 0.179112 0.688354  -0.010983 0.134844 0.805369  -0.0114269 0.0716045 0.911474  0 2.38419e-07 1  0 0.166666 0.833334  0.0107145 0.0881604 0.767414  0.021193 0.0180369 0.688656  0.02665 -0.037352 0.598008  0.0287471 -0.0755944 0.498837  0.0291476 -0.095704 0.394517  0.0288639 -0.097335 0.288327  0.0281804 -0.0802746 0.183617  0.027307 -0.0451077 0.0836618  0.0263602 0.00701024 -0.00844209  0.0253799 0.0743854 -0.0899314  0.0243489 0.154896 -0.158285  0.0232041 0.245968 -0.211442  0.0218675 0.344785 -0.247841  0.0201313 0.448245 -0.266446  0.0177975 0.553287 -0.266917  0.0146363 0.65689 -0.249361  0.00978446 0.754217 -0.214286  0 0.833333 -0.166667  0 -1.93715e-07 0.666667  4.99189e-06 -0.0470351 0.60872  0.00116748 -0.0886779 0.53936  0.00197297 -0.118582 0.462462  0.0021103 -0.134265 0.381138  0.00191617 -0.135256 0.298171  0.00176823 -0.121778 0.216049  0.00141823 -0.0941131 0.137599  0.000911832 -0.0531519 0.0652439  0.000285149 -0.000184238 0.00126274  -0.000422239 0.0631256 -0.0524874  -0.00123751 0.134815 -0.0942878  -0.00211608 0.212665 -0.122855  -0.00304413 0.294221 -0.137257  -0.00385332 0.377044 -0.137081  -0.00422502 0.458375 -0.122143  -0.00341558 0.535739 -0.0928662  0.000232935 0.608275 -0.0501463  0 0.666667 -1.93715e-07  0 -0.166667 0.5  -0.00150484 -0.188763 0.443251  -0.00325066 -0.201125 0.38221  -0.00410098 -0.203681 0.318151  -0.00463778 -0.195232 0.253753  -0.00503135 -0.175597 0.191456  -0.00521863 -0.145296 0.133186  -0.00549626 -0.105227 0.0811977  -0.0058136 -0.0566842 0.037026  -0.00616968 -0.00117418 0.00206779  -0.00653327 0.0595712 -0.0225817  -0.00687253 0.123688 -0.0362193  -0.00715852 0.189141 -0.0382893  -0.00723982 0.253908 -0.0287585  -0.00691342 0.315931 -0.00786279  -0.00600648 0.373172 0.023723  -0.00417805 0.424059 0.0647651  -0.000669956 0.468396 0.113062  0 0.5 0.166667  0 -0.333334 0.333333  -0.000181213 -0.328558 0.277265  -0.000632614 -0.313353 0.222924  -0.000740498 -0.288689 0.170581  -0.000690281 -0.255384 0.122592  -0.000609994 -0.214312 0.0808731  -0.00074023 -0.16639 0.0469353  -0.000859618 -0.113338 0.0218501  -0.000996947 -0.0567486 0.00641303  -0.00114477 0.00163335 0.00120726  -0.00124478 0.0599993 0.00628345  -0.00126433 0.1165 0.0215723  -0.00112772 0.169407 0.0465873  -0.000861168 0.217111 0.0804675  -0.000477076 0.258117 0.1221  -0.000104904 0.29113 0.170095  -3.00407e-05 0.315002 0.222674  -0.000599623 0.328342 0.277141  0 0.333333 0.333333  0 -0.5 0.166667  0.0019621 -0.466596 0.112979  0.00395346 -0.423303 0.0646757  0.00487161 -0.371938 0.0235445  0.00529712 -0.314188 -0.00816394  0.00560468 -0.251945 -0.0292674  0.00528443 -0.186725 -0.0387595  0.00511873 -0.120906 -0.0368064  0.00503206 -0.0564744 -0.0233646  0.00498188 0.00455528 0.00119044  0.00502491 0.0602652 0.0360821  0.00515556 0.108906 0.0801475  0.0053072 0.14902 0.131994  0.00545788 0.179462 0.18996  0.00546122 0.199445 0.252052  0.00491333 0.208289 0.316336  0.00327396 0.205392 0.380652  -0.000837803 0.189342 0.442051  0 0.166667 0.5  0 -0.666667 -2.5332e-07  0.00319165 -0.603866 -0.0501716  0.00415075 -0.533836 -0.0923957  0.00302821 -0.456514 -0.121595  0.0020718 -0.37528 -0.136886  0.00193298 -0.292583 -0.137791  0.00132668 -0.21064 -0.123596  0.00105345 -0.132271 -0.0953446  0.000846744 -0.0600466 -0.0536775  0.000780106 0.00371081 -2.42442e-05  0.000784755 0.0569681 0.063953  0.000833631 0.0980484 0.13625  0.000938892 0.12579 0.214475  0.00101066 0.139393 0.296295  0.00101471 0.138517 0.379076  0.000960827 0.123442 0.46005  0.000701904 0.0948497 0.536457  -0.0019877 0.0517758 0.606152  0 1.19209e-07 0.666667  0 -0.833333 -0.166667  -0.0063031 -0.751045 -0.214239  -0.0154467 -0.653772 -0.247265  -0.0218295 -0.551485 -0.264551  -0.0249331 -0.447531 -0.264998  -0.0257204 -0.344587 -0.247727  -0.025961 -0.245558 -0.212243  -0.0266274 -0.153893 -0.159364  -0.0269872 -0.0728247 -0.0913104  -0.0271654 -0.00494313 -0.0101204  -0.0272217 0.0475709 0.0816893  -0.027252 0.0830418 0.181239  -0.0272838 0.100402 0.285398  -0.0273287 0.0991588 0.391009  -0.0272584 0.0790968 0.494967  -0.0264277 0.0403146 0.594069  -0.0229738 -0.0160494 0.684724  -0.0101957 -0.0841308 0.764093  0 -0.166666 0.833334  0 0.333333 0.666667  0.00615022 0.247556 0.630442  0.0117065 0.171988 0.581155  0.0152661 0.105791 0.518161  0.0176551 0.050856 0.443484  0.0195178 0.008952 0.359686  0.020573 -0.0174967 0.269649  0.0209928 -0.0276151 0.176443  0.0210083 -0.0211569 0.0830234  0.0207999 0.00159796 -0.00768623  0.0204679 0.0398813 -0.0929213  0.020059 0.0924719 -0.169999  0.0196247 0.157685 -0.236593  0.0190628 0.233409 -0.290563  0.0182381 0.317222 -0.330288  0.0167897 0.406417 -0.354517  0.0137582 0.49738 -0.362305  0.00606418 0.581455 -0.356004  0 0.666667 -0.333334  0 0.166667 0.5  0.00205974 0.11561 0.46855  0.0042592 0.0666047 0.426342  0.00523943 0.0254881 0.375668  0.00566632 -0.00605907 0.318261  0.00632405 -0.0274642 0.255677  0.00665379 -0.0373776 0.190442  0.00675154 -0.0356852 0.124517  0.00664639 -0.022482 0.0599616  0.0063895 0.00179218 -0.00121114  0.00595593 0.0363474 -0.0571598  0.00538838 0.0801419 -0.106196  0.00466275 0.131767 -0.146752  0.00382209 0.189674 -0.177592  0.00284457 0.252074 -0.197766  0.0019877 0.317068 -0.206565  0.00196481 0.383112 -0.203715  1.09673e-05 0.442983 -0.189325  0 0.5 -0.166667  0 -8.9407e-08 0.333333  -9.78857e-05 -0.0243129 0.304304  0.000171661 -0.044213 0.269649  0.00043565 -0.0585344 0.231317  0.000511765 -0.0660943 0.190699  0.000739276 -0.0664895 0.148879  0.000708103 -0.0595027 0.107771  0.000559211 -0.0454455 0.0685836  0.000333309 -0.0247931 0.0324911  4.05312e-05 0.00182363 0.000595033  -0.000302076 0.0335515 -0.0261152  -0.000705004 0.0694381 -0.0468389  -0.00109196 0.108353 -0.0609196  -0.00142622 0.149127 -0.067912  -0.00159979 0.190411 -0.067547  -0.00138354 0.230951 -0.0599039  -0.000270844 0.269836 -0.045626  -0.000128746 0.304042 -0.0245509  0 0.333333 -8.9407e-08  0 -0.166667 0.166667  -3.32445e-05 -0.164044 0.139285  -8.02875e-05 -0.156189 0.111661  4.23193e-05 -0.143701 0.0851818  0.000211835 -0.126915 0.0611086  0.000123501 -0.105857 0.0401923  3.31402e-05 -0.0816461 0.0232295  -8.22544e-05 -0.0549278 0.0107645  -0.000237584 -0.0265164 0.00317365  -0.0004071 0.00273865 0.000719875  -0.000586629 0.0318769 0.00340649  -0.000703931 0.0600623 0.0111806  -0.000728488 0.086376 0.0238169  -0.00062871 0.110068 0.0408488  -0.000490427 0.130314 0.0617825  -0.000457287 0.146359 0.0859164  -0.000650167 0.157436 0.11196  -0.000224352 0.164537 0.13972  0 0.166667 0.166667  0 -0.333333 -1.49012e-07  0.000497773 -0.302823 -0.0253159  0.000757366 -0.267223 -0.0463158  0.000870585 -0.228314 -0.061166  0.00107431 -0.187461 -0.0688758  0.000455737 -0.145331 -0.0689522  0.00017786 -0.104005 -0.0618533  1.78814e-05 -0.064619 -0.0476719  -9.05991e-05 -0.0283925 -0.0267797  -0.000135303 0.00355822 0.000145227  -0.000101209 0.0301697 0.0322771  -1.43051e-05 0.050668 0.0685795  0.000149727 0.0644108 0.107862  0.000366211 0.071018 0.148884  0.000469923 0.070353 0.190294  0.000183344 0.0622079 0.230909  -0.00133467 0.046037 0.269311  -0.000422239 0.025839 0.303885  0 5.96046e-08 0.333333  0 -0.5 -0.166667  0.000264123 -0.440975 -0.190013  -0.00136703 -0.377767 -0.204111  -0.00271294 -0.312884 -0.206912  -0.00298941 -0.248676 -0.198523  -0.00400954 -0.186238 -0.17834  -0.00450331 -0.127975 -0.147663  -0.00486827 -0.0758914 -0.107139  -0.00504541 -0.0317235 -0.0580435  -0.00511181 0.00310385 -0.00194672  -0.00506198 0.0274187 0.0593904  -0.00489473 0.0405099 0.124053  -0.00465226 0.0419853 0.18991  -0.00434661 0.0317906 0.254947  -0.00389719 0.0104076 0.317054  -0.00328994 -0.0213356 0.37422  -0.00367808 -0.0632678 0.425269  -0.000956297 -0.111931 0.467427  0 -0.166667 0.5  0 -0.666667 -0.333334  -0.00773625 -0.581157 -0.356784  -0.0153554 -0.490781 -0.36248  -0.0191374 -0.401137 -0.353692  -0.0199463 -0.313822 -0.330131  -0.0199736 -0.230871 -0.291031  -0.0206881 -0.154993 -0.237101  -0.0210741 -0.0895046 -0.170635  -0.0212315 -0.0366621 -0.0937248  -0.0212176 0.00184584 -0.00870466  -0.0211064 0.0247011 0.0817759  -0.0208848 0.0312383 0.17486  -0.0205832 0.021186 0.26765  -0.020138 -0.00517476 0.357202  -0.0193071 -0.0471068 0.440794  -0.0173509 -0.103267 0.515682  -0.0107925 -0.169257 0.579009  -0.00343251 -0.245666 0.628942  0 -0.333333 0.666667  0 0.5 0.5  -0.000477016 0.411821 0.494121  -0.00266972 0.332161 0.473368  -0.00371993 0.255514 0.438005  -0.00284189 0.182831 0.388919  -0.00186336 0.119516 0.327066  -0.00116211 0.0680127 0.254809  -0.000760317 0.0300186 0.174509  -0.00