# vtk DataFile Version 5.1
vtk output
ASCII

DATASET UNSTRUCTURED_GRID
POINTS 6253 float
0 0 3
0.166667 0 3
0.333333 0 3
0.5 0 3
0.666667 0 3
0.833333 0 3
1 0 3
1.16667 0 3
1.33333 0 3
1.5 0 3
1.66667 0 3
1.83333 0 3
2 0 3
2.16667 0 3
2.33333 0 3
2.5 0 3
2.66667 0 3
2.83333 0 3
3 0 3
0 0.166667 3
0.166667 0.166667 3
0.333333 0.166667 3
0.5 0.166667 3
0.666667 0.166667 3
0.833333 0.166667 3
1 0.166667 3
1.16667 0.166667 3
1.33333 0.166667 3
1.5 0.166667 3
1.66667 0.166667 3
1.83333 0.166667 3
2 0.166667 3
2.16667 0.166667 3
2.33333 0.166667 3
2.5 0.166667 3
2.66667 0.166667 3
2.83333 0.166667 3
3 0.166667 3
0 0.333333 3
0.166667 0.333333 3
0.333333 0.333333 3
0.5 0.333333 3
0.666667 0.333333 3
0.833333 0.333333 3
1 0.333333 3
1.16667 0.333333 3
1.33333 0.333333 3
1.5 0.333333 3
1.66667 0.333333 3
1.83333 0.333333 3
2 0.333333 3
2.16667 0.333333 3
2.33333 0.333333 3
2.5 0.333333 3
2.66667 0.333333 3
2.83333 0.333333 3
3 0.333333 3
0 0.5 3
0.166667 0.5 3
0.333333 0.5 3
0.5 0.5 3
0.666667 0.5 3
0.833333 0.5 3
1 0.5 3
1.16667 0.5 3
1.33333 0.5 3
1.5 0.5 3
1.66667 0.5 3
1.83333 0.5 3
2 0.5 3
2.16667 0.5 3
2.33333 0.5 3
2.5 0.5 3
2.66667 0.5 3
2.83333 0.5 3
3 0.5 3
0 0.666667 3
0.166667 0.666667 3
0.333333 0.666667 3
0.5 0.666667 3
0.666667 0.666667 3
0.833333 0.666667 3
1 0.666667 3
1.16667 0.666667 3
1.33333 0.666667 3
1.5 0.666667 3
1.66667 0.666667 3
1.83333 0.666667 3
2 0.666667 3
2.16667 0.666667 3
2.33333 0.666667 3
2.5 0.666667 3
2.66667 0.666667 3
2.83333 0.666667 3
3 0.666667 3
0 0.833333 3
0.166667 0.833333 3
0.333333 0.833333 3
0.5 0.833333 3
0.666667 0.833333 3
0.833333 0.833333 3
1 0.833333 3
1.16667 0.833333 3
1.33333 0.833333 3
1.5 0.833333 3
1.66667 0.833333 3
1.83333 0.833333 3
2 0.833333 3
2.16667 0.833333 3
2.33333 0.833333 3
2.5 0.833333 3
2.66667 0.833333 3
2.83333 0.833333 3
3 0.833333 3
0 1 3
0.166667 1 3
0.333333 1 3
0.5 1 3
0.666667 1 3
0.833333 1 3
1 1 3
1.16667 1 3
1.33333 1 3
1.5 1 3
1.66667 1 3
1.83333 1 3
2 1 3
2.16667 1 3
2.33333 1 3
2.5 1 3
2.66667 1 3
2.83333 1 3
3 1 3
0 0 3.16667
0.166667 0 3.16667
0.333333 0 3.16667
0.5 0 3.16667
0.666667 0 3.16667
0.833333 0 3.16667
1 0 3.16667
1.16667 0 3.16667
1.33333 0 3.16667
1.5 0 3.16667
1.66667 0 3.16667
1.83333 0 3.16667
2 0 3.16667
2.16667 0 3.16667
2.33333 0 3.16667
2.5 0 3.16667
2.66667 0 3.16667
2.83333 0 3.16667
3 0 3.16667
0 0.166667 3.16667
0.166667 0.166667 3.16667
0.333333 0.166667 3.16667
0.5 0.166667 3.16667
0.666667 0.166667 3.16667
0.833333 0.166667 3.16667
1 0.166667 3.16667
1.16667 0.166667 3.16667
1.33333 0.166667 3.16667
1.5 0.166667 3.16667
1.66667 0.166667 3.16667
1.83333 0.166667 3.16667
2 0.166667 3.16667
2.16667 0.166667 3.16667
2.33333 0.166667 3.16667
2.5 0.166667 3.16667
2.66667 0.166667 3.16667
2.83333 0.166667 3.16667
3 0.166667 3.16667
0 0.333333 3.16667
0.166667 0.333333 3.16667
0.333333 0.333333 3.16667
0.5 0.333333 3.16667
0.666667 0.333333 3.16667
0.833333 0.333333 3.16667
1 0.333333 3.16667
1.16667 0.333333 3.16667
1.33333 0.333333 3.16667
1.5 0.333333 3.16667
1.66667 0.333333 3.16667
1.83333 0.333333 3.16667
2 0.333333 3.16667
2.16667 0.333333 3.16667
2.33333 0.333333 3.16667
2.5 0.333333 3.16667
2.66667 0.333333 3.16667
2.83333 0.333333 3.16667
3 0.333333 3.16667
0 0.5 3.16667
0.166667 0.5 3.16667
0.333333 0.5 3.16667
0.5 0.5 3.16667
0.666667 0.5 3.16667
0.833333 0.5 3.16667
1 0.5 3.16667
1.16667 0.5 3.16667
1.33333 0.5 3.16667
1.5 0.5 3.16667
1.66667 0.5 3.16667
1.83333 0.5 3.16667
2 0.5 3.16667
2.16667 0.5 3.16667
2.33333 0.5 3.16667
2.5 0.5 3.16667
2.66667 0.5 3.16667
2.83333 0.5 3.16667
3 0.5 3.16667
0 0.666667 3.16667
0.166667 0.666667 3.16667
0.333333 0.666667 3.16667
0.5 0.666667 3.16667
0.666667 0.666667 3.16667
0.833333 0.666667 3.16667
1 0.666667 3.16667
1.16667 0.666667 3.16667
1.33333 0.666667 3.16667
1.5 0.666667 3.16667
1.66667 0.666667 3.16667
1.83333 0.666667 3.16667
2 0.666667 3.16667
2.16667 0.666667 3.16667
2.33333 0.666667 3.16667
2.5 0.666667 3.16667
2.66667 0.666667 3.16667
2.83333 0.666667 3.16667
3 0.666667 3.16667
0 0.833333 3.16667
0.166667 0.833333 3.16667
0.333333 0.833333 3.16667
0.5 0.833333 3.16667
0.666667 0.833333 3.16667
0.833333 0.833333 3.16667
1 0.833333 3.16667
1.16667 0.833333 3.16667
1.33333 0.833333 3.16667
1.5 0.833333 3.16667
1.66667 0.833333 3.16667
1.83333 0.833333 3.16667
2 0.833333 3.16667
2.16667 0.833333 3.16667
2.33333 0.833333 3.16667
2.5 0.833333 3.16667
2.66667 0.833333 3.16667
2.83333 0.833333 3.16667
3 0.833333 3.16667
0 1 3.16667
0.166667 1 3.16667
0.333333 1 3.16667
0.5 1 3.16667
0.666667 1 3.16667
0.833333 1 3.16667
1 1 3.16667
1.16667 1 3.16667
1.33333 1 3.16667
1.5 1 3.16667
1.66667 1 3.16667
1.83333 1 3.16667
2 1 3.16667
2.16667 1 3.16667
2.33333 1 3.16667
2.5 1 3.16667
2.66667 1 3.16667
2.83333 1 3.16667
3 1 3.16667
0 0 3.33333
0.166667 0 3.33333
0.333333 0 3.33333
0.5 0 3.33333
0.666667 0 3.33333
0.833333 0 3.33333
1 0 3.33333
1.16667 0 3.33333
1.33333 0 3.33333
1.5 0 3.33333
1.66667 0 3.33333
1.83333 0 3.33333
2 0 3.33333
2.16667 0 3.33333
2.33333 0 3.33333
2.5 0 3.33333
2.66667 0 3.33333
2.83333 0 3.33333
3 0 3.33333
0 0.166667 3.33333
0.166667 0.166667 3.33333
0.333333 0.166667 3.33333
0.5 0.166667 3.33333
0.666667 0.166667 3.33333
0.833333 0.166667 3.33333
1 0.166667 3.33333
1.16667 0.166667 3.33333
1.33333 0.166667 3.33333
1.5 0.166667 3.33333
1.66667 0.166667 3.33333
1.83333 0.166667 3.33333
2 0.166667 3.33333
2.16667 0.166667 3.33333
2.33333 0.166667 3.33333
2.5 0.166667 3.33333
2.66667 0.166667 3.33333
2.83333 0.166667 3.33333
3 0.166667 3.33333
0 0.333333 3.33333
0.166667 0.333333 3.33333
0.333333 0.333333 3.33333
0.5 0.333333 3.33333
0.666667 0.333333 3.33333
0.833333 0.333333 3.33333
1 0.333333 3.33333
1.16667 0.333333 3.33333
1.33333 0.333333 3.33333
1.5 0.333333 3.33333
1.66667 0.333333 3.33333
1.83333 0.333333 3.33333
2 0.333333 3.33333
2.16667 0.333333 3.33333
2.33333 0.333333 3.33333
2.5 0.333333 3.33333
2.66667 0.333333 3.33333
2.83333 0.333333 3.33333
3 0.333333 3.33333
0 0.5 3.33333
0.166667 0.5 3.33333
0.333333 0.5 3.33333
0.5 0.5 3.33333
0.666667 0.5 3.33333
0.833333 0.5 3.33333
1 0.5 3.33333
1.16667 0.5 3.33333
1.33333 0.5 3.33333
1.5 0.5 3.33333
1.66667 0.5 3.33333
1.83333 0.5 3.33333
2 0.5 3.33333
2.16667 0.5 3.33333
2.33333 0.5 3.33333
2.5 0.5 3.33333
2.66667 0.5 3.33333
2.83333 0.5 3.33333
3 0.5 3.33333
0 0.666667 3.33333
0.166667 0.666667 3.33333
0.333333 0.666667 3.33333
0.5 0.666667 3.33333
0.666667 0.666667 3.33333
0.833333 0.666667 3.33333
1 0.666667 3.33333
1.16667 0.666667 3.33333
1.33333 0.666667 3.33333
1.5 0.666667 3.33333
1.66667 0.666667 3.33333
1.83333 0.666667 3.33333
2 0.666667 3.33333
2.16667 0.666667 3.33333
2.33333 0.666667 3.33333
2.5 0.666667 3.33333
2.66667 0.666667 3.33333
2.83333 0.666667 3.33333
3 0.666667 3.33333
0 0.833333 3.33333
0.166667 0.833333 3.33333
0.333333 0.833333 3.33333
0.5 0.833333 3.33333
0.666667 0.833333 3.33333
0.833333 0.833333 3.33333
1 0.833333 3.33333
1.16667 0.833333 3.33333
1.33333 0.833333 3.33333
1.5 0.833333 3.33333
1.66667 0.833333 3.33333
1.83333 0.833333 3.33333
2 0.833333 3.33333
2.16667 0.833333 3.33333
2.33333 0.833333 3.33333
2.5 0.833333 3.33333
2.66667 0.833333 3.33333
2.83333 0.833333 3.33333
3 0.833333 3.33333
0 1 3.33333
0.166667 1 3.33333
0.333333 1 3.33333
0.5 1 3.33333
0.666667 1 3.33333
0.833333 1 3.33333
1 1 3.33333
1.16667 1 3.33333
1.33333 1 3.33333
1.5 1 3.33333
1.66667 1 3.33333
1.83333 1 3.33333
2 1 3.33333
2.16667 1 3.33333
2.33333 1 3.33333
2.5 1 3.33333
2.66667 1 3.33333
2.83333 1 3.33333
3 1 3.33333
0 0 3.5
0.166667 0 3.5
0.333333 0 3.5
0.5 0 3.5
0.666667 0 3.5
0.833333 0 3.5
1 0 3.5
1.16667 0 3.5
1.33333 0 3.5
1.5 0 3.5
1.66667 0 3.5
1.83333 0 3.5
2 0 3.5
2.16667 0 3.5
2.33333 0 3.5
2.5 0 3.5
2.66667 0 3.5
2.83333 0 3.5
3 0 3.5
0 0.166667 3.5
0.166667 0.166667 3.5
0.333333 0.166667 3.5
0.5 0.166667 3.5
0.666667 0.166667 3.5
0.833333 0.166667 3.5
1 0.166667 3.5
1.16667 0.166667 3.5
1.33333 0.166667 3.5
1.5 0.166667 3.5
1.66667 0.166667 3.5
1.83333 0.166667 3.5
2 0.166667 3.5
2.16667 0.166667 3.5
2.33333 0.166667 3.5
2.5 0.166667 3.5
2.66667 0.166667 3.5
2.83333 0.166667 3.5
3 0.166667 3.5
0 0.333333 3.5
0.166667 0.333333 3.5
0.333333 0.333333 3.5
0.5 0.333333 3.5
0.666667 0.333333 3.5
0.833333 0.333333 3.5
1 0.333333 3.5
1.16667 0.333333 3.5
1.33333 0.333333 3.5
1.5 0.333333 3.5
1.66667 0.333333 3.5
1.83333 0.333333 3.5
2 0.333333 3.5
2.16667 0.333333 3.5
2.33333 0.333333 3.5
2.5 0.333333 3.5
2.66667 0.333333 3.5
2.83333 0.333333 3.5
3 0.333333 3.5
0 0.5 3.5
0.166667 0.5 3.5
0.333333 0.5 3.5
0.5 0.5 3.5
0.666667 0.5 3.5
0.833333 0.5 3.5
1 0.5 3.5
1.16667 0.5 3.5
1.33333 0.5 3.5
1.5 0.5 3.5
1.66667 0.5 3.5
1.83333 0.5 3.5
2 0.5 3.5
2.16667 0.5 3.5
2.33333 0.5 3.5
2.5 0.5 3.5
2.66667 0.5 3.5
2.83333 0.5 3.5
3 0.5 3.5
0 0.666667 3.5
0.166667 0.666667 3.5
0.333333 0.666667 3.5
0.5 0.666667 3.5
0.666667 0.666667 3.5
0.833333 0.666667 3.5
1 0.666667 3.5
1.16667 0.666667 3.5
1.33333 0.666667 3.5
1.5 0.666667 3.5
1.66667 0.666667 3.5
1.83333 0.666667 3.5
2 0.666667 3.5
2.16667 0.666667 3.5
2.33333 0.666667 3.5
2.5 0.666667 3.5
2.66667 0.666667 3.5
2.83333 0.666667 3.5
3 0.666667 3.5
0 0.833333 3.5
0.166667 0.833333 3.5
0.333333 0.833333 3.5
0.5 0.833333 3.5
0.666667 0.833333 3.5
0.833333 0.833333 3.5
1 0.833333 3.5
1.16667 0.833333 3.5
1.33333 0.833333 3.5
1.5 0.833333 3.5
1.66667 0.833333 3.5
1.83333 0.833333 3.5
2 0.833333 3.5
2.16667 0.833333 3.5
2.33333 0.833333 3.5
2.5 0.833333 3.5
2.66667 0.833333 3.5
2.83333 0.833333 3.5
3 0.833333 3.5
0 1 3.5
0.166667 1 3.5
0.333333 1 3.5
0.5 1 3.5
0.666667 1 3.5
0.833333 1 3.5
1 1 3.5
1.16667 1 3.5
1.33333 1 3.5
1.5 1 3.5
1.66667 1 3.5
1.83333 1 3.5
2 1 3.5
2.16667 1 3.5
2.33333 1 3.5
2.5 1 3.5
2.66667 1 3.5
2.83333 1 3.5
3 1 3.5
0 0 3.66667
0.166667 0 3.66667
0.333333 0 3.66667
0.5 0 3.66667
0.666667 0 3.66667
0.833333 0 3.66667
1 0 3.66667
1.16667 0 3.66667
1.33333 0 3.66667
1.5 0 3.66667
1.66667 0 3.66667
1.83333 0 3.66667
2 0 3.66667
2.16667 0 3.66667
2.33333 0 3.66667
2.5 0 3.66667
2.66667 0 3.66667
[...]
POINT_DATA 6253
SCALARS weights float 1
LOOKUP_TABLE default
0.462963 0.617284 0.617284 0.617284 0.617284 0.617284 0.617284 0.617284 0.617284 0.617284 0.617284 0.617284 0.617284 0.617284 0.617284 0.617284 0.617284 0.617284 0.154321 0.617284 0.925926 0.925926 0.925926 0.925926 0.925926 0.925926 0.925926 0.925926 0.925925 0.925926 0.925926 0.925926 0.925927 0.925926 0.925926 0.925926 0.925926 0.308642 0.617284 0.925926 0.925926 0.925926 0.925926 0.925926 0.925926 0.925926 0.925926 0.925925 0.925926 0.925926 0.925926 0.925927 0.925926 0.925926 0.925926 0.925926 0.308642 0.617284 0.925926 0.925926 0.925926 0.925926 0.925926 0.925926 0.925926 0.925926 0.925925 0.925926 0.925926 0.925926 0.925927 0.925926 0.925926 0.925926 0.925926 0.308642 0.617284 0.925926 0.925926 0.925926 0.925925 0.925926 0.925926 0.925926 0.925926 0.925925 0.925925 0.925926 0.925926 0.925927 0.925926 0.925926 0.925926 0.925926 0.308642 0.617284 0.925926 0.925926 0.925926 0.925926 0.925926 0.925926 0.925926 0.925926 0.925925 0.925926 0.925926 0.925926 0.925927 0.925926 0.925926 0.925926 0.925926 0.308642 0.154321 0.308642 0.308642 0.308642 0.308642 0.308642 0.308642 0.308642 0.308642 0.308642 0.308642 0.308642 0.308642 0.308642 0.308642 0.308642 0.308642 0.308642 0.154321 0.617283 0.925925 0.925925 0.925925 0.925925 0.925925 0.925925 0.925925 0.925925 0.925925 0.925925 0.925925 0.925925 0.925925 0.925925 0.925925 0.925926 0.925925 0.308641 0.925925 1.85185 1.85185 1.85185 1.85185 1.85185 1.85185 1.85185 1.85185 1.85185 1.85185 1.85185 1.85185 1.85185 1.85185 1.85185 1.85185 1.85185 0.925925 0.925925 1.85185 1.85185 1.85185 1.85185 1.85185 1.85185 1.85185 1.85185 1.85185 1.85185 1.85185 1.85185 1.85185 1.85185 1.85185 1.85185 1.85185 0.925925 0.925925 1.85185 1.85185 1.85185 1.85185 1.85185 1.85185 1.85185 1.85185 1.85185 1.85185 1.85185 1.85185 1.85185 1.85185 1.85185 1.85185 1.85185 0.925925 0.925925 1.85185 1.85185 1.85185 1.85185 1.85185 1.85185 1.85185 1.85185 1.85185 1.85185 1.85185 1.85185 1.85185 1.85185 1.85185 1.85185 1.85185 0.925925 0.925925 1.85185 1.85185 1.85185 1.85185 1.85185 1.85185 1.85185 1.85185 1.85185 1.85185 1.85185 1.85185 1.85185 1.85185 1.85185 1.85185 1.85185 0.925925 0.308642 0.925925 0.925925 0.925925 0.925925 0.925925 0.925926 0.925926 0.925925 0.925925 0.925925 0.925925 0.925926 0.925926 0.925926 0.925925 0.925926 0.925926 0.617284 0.617284 0.925926 0.925926 0.925926 0.925926 0.925926 0.925926 0.925926 0.925926 0.925925 0.925926 0.925926 0.925926 0.925926 0.925926 0.925926 0.925927 0.925926 0.308641 0.925926 1.85185 1.85185 1.85185 1.85185 1.85185 1.85185 1.85185 1.85185 1.85185 1.85185 1.85185 1.85185 1.85185 1.85185 1.85185 1.85185 1.85185 0.925925 0.925927 1.85185 1.85185 1.85185 1.85185 1.85185 1.85185 1.85185 1.85185 1.85185 1.85185 1.85185 1.85185 1.85185 1.85185 1.85185 1.85185 1.85185 0.925925 0.925927 1.85185 1.85185 1.85185 1.85185 1.85185 1.85185 1.85185 1.85185 1.85185 1.85185 1.85185 1.85185 1.85185 1.85185 1.85185 1.85185 1.85185 0.925925 0.925926 1.85185 1.85185 1.85185 1.85185 1.85185 1.85185 1.85185 1.85185 1.85185 1.85185 1.85185 1.85185 1.85185 1.85185 1.85185 1.85185 1.85185 0.925925 0.925926 1.85185 1.85185 1.85185 1.85185 1.85185 1.85185 1.85185 1.85185 1.85185 1.85185 1.85185 1.85185 1.85185 1.85185 1.85185 1.85185 1.85185 0.925925 0.308642 0.925926 0.925926 0.925926 0.925926 0.925926 0.925926 0.925926 0.925926 0.925925 0.925926 0.925926 0.925926 0.925926 0.925927 0.925926 0.925926 0.925927 0.617283 0.617284 0.925927 0.925927 0.925926 0.925926 0.925927 0.925927 0.925927 0.925926 0.925926 0.925926 0.925926 0.925927 0.925927 0.925927 0.925927 0.925927 0.925927 0.308642 0.925927 1.85185 1.85185 1.85185 1.85185 1.85185 1.85185 1.85185 1.85185 1.85185 1.85185 1.85185 1.85185 1.85185 1.85185 1.85185 1.85186 1.85186 0.925927 0.925927 1.85185 1.85185 1.85185 1.85185 1.85185 1.85185 1.85185 1.85185 1.85185 1.85185 1.85185 1.85185 1.85185 1.85185 1.85185 1.85186 1.85186 0.925927 0.925927 1.85185 1.85185 1.85185 1.85185 1.85185 1.85185 1.85185 1.85185 1.85185 1.85185 1.85185 1.85185 1.85185 1.85186 1.85185 1.85186 1.85186 0.925927 0.925927 1.85185 1.85185 1.85185 1.85185 1.85185 1.85185 1.85185 1.85185 1.85185 1.85185 1.85185 1.85185 1.85185 1.85185 1.85185 1.85185 1.85186 0.925927 0.925927 1.85185 1.85185 1.85185 1.85185 1.85185 1.85185 1.85185 1.85185 1.85185 1.85185 1.85185 1.85185 1.85185 1.85185 1.85185 1.85185 1.85186 0.925927 0.308643 0.925927 0.925927 0.925927 0.925927 0.925927 0.925928 0.925928 0.925927 0.925927 0.925927 0.925927 0.925928 0.925928 0.925928 0.925927 0.925928 0.925928 0.617285 0.617284 0.925925 0.925925 0.925925 0.925925 0.925925 0.925926 0.925926 0.925925 0.925925 0.925925 0.925925 0.925925 0.925926 0.925925 0.925926 0.925926 0.925926 0.308641 0.925926 1.85185 1.85185 1.85185 1.85185 1.85185 1.85185 1.85185 1.85185 1.85185 1.85185 1.85185 1.85185 1.85185 1.85185 1.85185 1.85185 1.85185 0.925925 0.925926 1.85185 1.85185 1.85185 1.85185 1.85185 1.85185 1.85185 1.85185 1.85185 1.85185 1.85185 1.85185 1.85185 1.85185 1.85185 1.85185 1.85185 0.925925 0.925926 1.85185 1.85185 1.85185 1.85185 1.85185 1.85185 1.85185 1.85185 1.85185 1.85185 1.85185 1.85185 1.85185 1.85185 1.85185 1.85185 1.85185 0.925925 0.925926 1.85185 1.85185 1.85185 1.85185 1.85185 1.85185 1.85185 1.85185 1.85185 1.85185 1.85185 1.85185 1.85185 1.85185 1.85185 1.85185 1.85185 0.925925 0.925926 1.85185 1.85185 1.85185 1.85185 1.85185 1.85185 1.85185 1.85185 1.85185 1.85185 1.85185 1.85185 1.85185 1.85185 1.85185 1.85185 1.85185 0.925925 0.308642 0.925925 0.925925 0.925925 0.925925 0.925925 0.925926 0.925926 0.925925 0.925925 0.925925 0.925926 0.925926 0.925926 0.925926 0.925925 0.925926 0.925926 0.617283 0.617284 0.925925 0.925925 0.925925 0.925925 0.925925 0.925926 0.925925 0.925925 0.925925 0.925925 0.925925 0.925925 0.925926 0.925925 0.925926 0.925926 0.925926 0.308641 0.925926 1.85185 1.85185 1.85185 1.85185 1.85185 1.85185 1.85185 1.85185 1.85185 1.85185 1.85185 1.85185 1.85185 1.85185 1.85185 1.85185 1.85185 0.925925 0.925926 1.85185 1.85185 1.85185 1.85185 1.85185 1.85185 1.85185 1.85185 1.85185 1.85185 1.85185 1.85185 1.85185 1.85185 1.85185 1.85185 1.85185 0.925925 0.925926 1.85185 1.85185 1.85185 1.85185 1.85185 1.85185 1.85185 1.85185 1.85185 1.85185 1.85185 1.85185 1.85185 1.85185 1.85185 1.85185 1.85185 0.925925 0.925926 1.85185 1.85185 1.85185 1.85185 1.85185 1.85185 1.85185 1.85185 1.85185 1.85185 1.85185 1.85185 1.85185 1.85185 1.85185 1.85185 1.85185 0.925925 0.925926 1.85185 1.85185 1.85185 1.85185 1.85185 1.85185 1.85185 1.85185 1.85185 1.85185 1.85185 1.85185 1.85185 1.85185 1.85185 1.85185 1.85185 0.925925 0.308642 0.925926 0.925926 0.925926 0.925926 0.925926 0.925926 0.925926 0.925926 0.925925 0.925926 0.925926 0.925927 0.925926 0.925927 0.925926 0.925926 0.925926 0.617283 0.154321 0.308642 0.308642 0.308642 0.308642 0.308642 0.308642 0.308642 0.308642 0.308642 0.308642 0.308642 0.308642 0.308642 0.308642 0.308642 0.308642 0.308642 0.154321 0.308642 0.925925 0.925926 0.925926 0.925925 0.925925 0.925926 0.925926 0.925926 0.925925 0.925926 0.925926 0.925926 0.925926 0.925926 0.925926 0.925926 0.925926 0.617283 0.308642 0.925925 0.925926 0.925926 0.925926 0.925925 0.925926 0.925926 0.925926 0.925925 0.925926 0.925926 0.925926 0.925926 0.925926 0.925926 0.925926 0.925926 0.617283 0.308642 0.925926 0.925926 0.925926 0.925926 0.925925 0.925926 0.925926 0.925926 0.925925 0.925925 0.925926 0.925926 0.925926 0.925926 0.925926 0.925926 0.925926 0.617283 0.308642 0.925925 0.925925 0.925926 0.925925 0.925925 0.925926 0.925926 0.925925 0.925925 0.925925 0.925926 0.925926 0.925926 0.925926 0.925926 0.925926 0.925926 0.617283 0.308642 0.925925 0.925925 0.925925 0.925925 0.925925 0.925926 0.925926 0.925925 0.925925 0.925925 0.925926 0.925926 0.925926 0.925926 0.925926 0.925926 0.925926 0.617283 0.154321 0.617283 0.617283 0.617283 0.617283 0.617283 0.617284 0.617284 0.617283 0.617283 0.617283 0.617283 0.617284 0.617284 0.617284 0.617283 0.617284 0.617284 0.462962 0.154321 0.308642 0.462963 0.154321 0.231482 0.462963 0.308642 0.462963 0.231481 0.154321 0.154321 0.231481 0.154321 0.462962 0.231481 0.231481 0.154321 0.308642 0.231481 0.308642 0.462963 0.154321 0.231482 0.462963 0.308642 0.462963 0.231481 0.154321 0.462962 0.231481 0.154321 0.308642 0.231481 0.308642 0.462963 0.154321 0.231482 0.462963 0.308642 0.462963 0.231481 0.154321 0.462962 0.231481 0.154321 0.308642 0.231482 0.308642 0.462963 0.154321 0.231482 0.462963 0.308642 0.462963 0.231481 0.154321 0.462962 0.231481 0.154321 0.308642 0.231481 0.308642 0.462963 0.154321 0.231482 0.462963 0.308642 0.462963 0.231481 0.154321 0.462962 0.231481 0.154321 0.308642 0.231482 0.308642 0.462963 0.154321 0.231482 0.462963 0.308642 0.462963 0.231481 0.154321 0.462962 0.231481 0.154321 0.308642 0.231482 0.308642 0.462963 0.154321 0.231482 0.462963 0.308642 0.462963 0.231481 0.154321 0.462963 0.231481 0.154321 0.308642 0.231482 0.308642 0.462963 0.154321 0.231482 0.462963 0.308642 0.462963 0.231481 0.154321 0.462962 0.231481 0.154321 0.308642 0.231481 0.308642 0.462963 0.154321 0.231481 0.462963 0.308642 0.462963 0.231481 0.154321 0.462962 0.231481 0.154321 0.308642 0.231481 0.308642 0.462963 0.154321 0.231481 0.462963 0.308642 0.462963 0.231481 0.154321 0.462962 0.231481 0.154321 0.308642 0.231481 0.308642 0.462963 0.154321 0.231481 0.462963 0.308642 0.462963 0.231481 0.154321 0.462962 0.231481 0.154321 0.308642 0.231482 0.308642 0.462963 0.154321 0.231481 0.462963 0.308642 0.462963 0.231481 0.154321 0.462963 0.231481 0.154321 0.308642 0.231482 0.308642 0.462963 0.154321 0.231481 0.462963 0.308642 0.462963 0.231481 0.154321 0.462963 0.231481 0.154321 0.308642 0.231482 0.308643 0.462964 0.154321 0.231482 0.462963 0.308642 0.462963 0.231482 0.154321 0.462963 0.231481 0.154321 0.308642 0.231482 0.308642 0.462962 0.154321 0.231481 0.462963 0.308641 0.462963 0.231481 0.154321 0.462962 0.231482 0.154321 0.308642 0.231482 0.308642 0.462963 0.154321 0.231481 0.462963 0.308642 0.462963 0.231481 0.154321 0.462963 0.231481 0.154321 0.308642 0.231481 0.308642 0.462963 0.154321 0.231482 0.462963 0.308642 0.462963 0.231482 0.154321 0.462963 0.231482 0.154321 0.308642 0.231482 0.308642 0.462963 0.154321 0.231481 0.231481 0.308642 0.231481 0.231481 0.154321 0.462962 0.0771604 0.154321 0.154321 0.0771604 0.154321 0.308642 0.462963 0.154321 0.231482 0.462963 0.308642 0.462963 0.231481 0.154321 0.462962 0.231481 0.308642 0.231481 0.308642 0.462963 0.154321 0.231482 0.462963 0.308642 0.462963 0.462962 0.308642 0.231481 0.308642 0.462963 0.154321 0.231482 0.462963 0.308642 0.462963 0.462962 0.308642 0.231482 0.308642 0.462963 0.154321 0.231482 0.462963 0.308642 0.462963 0.462962 0.308642 0.231481 0.308642 0.462963 0.154321 0.231482 0.462963 0.308642 0.462963 0.462962 0.308642 0.231482 0.308642 0.462963 0.154321 0.231482 0.462963 0.308642 0.462963 0.462963 0.308642 0.231482 0.308642 0.462963 0.154321 0.231482 0.462963 0.308642 0.462963 0.462963 0.308642 0.231482 0.308642 0.462963 0.154321 0.231482 0.462963 0.308642 0.462963 0.462962 0.308642 0.231482 0.308642 0.462963 0.154321 0.231481 0.462963 0.308642 0.462963 0.462962 0.308642 0.231481 0.308642 0.462963 0.154321 0.231482 0.462963 0.308642 0.462963 0.462962 0.308642 0.231482 0.308642 0.462963 0.154321 0.231481 0.462963 0.308642 0.462963 0.462962 0.308642 0.231482 0.308642 0.462963 0.154321 0.231481 0.462963 0.308642 0.462963 0.462963 0.308642 0.231482 0.308642 0.462963 0.154321 0.231481 0.462963 0.308642 0.462963 0.462963 0.308642 0.231482 0.308643 0.462964 0.154321 0.231482 0.462963 0.308642 0.462963 0.462963 0.308642 0.231482 0.308642 0.462962 0.154321 0.231481 0.462963 0.308641 0.462963 0.462962 0.308642 0.231482 0.308642 0.462963 0.154321 0.231481 0.462963 0.308642 0.462963 0.462963 0.308642 0.231481 0.308642 0.462963 0.154321 0.231482 0.462963 0.308642 0.462963 0.462963 0.308642 0.231482 0.308642 0.462963 0.154321 0.231481 0.231481 0.308642 0.231481 0.462962 0.154321 0.0771604 0.154321 0.308642 0.462963 0.154321 0.231482 0.462963 0.308642 0.462963 0.231481 0.154321 0.462962 0.231481 0.308642 0.231481 0.308642 0.462963 0.154321 0.231482 0.462963 0.308642 0.462963 0.462962 0.308642 0.231481 0.308642 0.462963 0.154321 0.231482 0.462963 0.308642 0.462963 0.462962 0.308642 0.231481 0.308642 0.462963 0.154321 0.231482 0.462963 0.308642 0.462963 0.462962 0.308642 0.231481 0.308642 0.462963 0.154321 0.231482 0.462963 0.308642 0.462963 0.462962 0.308642 0.231481 0.308642 0.462963 0.154321 0.231482 0.462963 0.308642 0.462963 0.462963 0.308642 0.231482 0.308642 0.462963 0.154321 0.231482 0.462963 0.308642 0.462963 0.462963 0.308642 0.231482 0.308642 0.462963 0.154321 0.231482 0.462963 0.308642 0.462963 0.462962 0.308642 0.231481 0.308642 0.462963 0.154321 0.231481 0.462963 0.308641 0.462962 0.462962 0.308642 0.231481 0.308642 0.462963 0.154321 0.231482 0.462963 0.308642 0.462963 0.462962 0.308642 0.231481 0.308642 0.462963 0.154321 0.231481 0.462963 0.308642 0.462963 0.462962 0.308642 0.231482 0.308642 0.462963 0.154321 0.231481 0.462963 0.308642 0.462963 0.462963 0.308642 0.231482 0.308642 0.462963 0.154321 0.231481 0.462963 0.308642 0.462963 0.462963 0.308642 0.231482 0.308643 0.462963 0.154321 0.231482 0.462963 0.308642 0.462963 0.462963 0.308642 0.231482 0.308642 0.462962 0.154321 0.231481 0.462963 0.308641 0.462963 0.462962 0.308642 0.231482 0.308642 0.462963 0.154321 0.231481 0.462963 0.308642 0.462963 0.462963 0.308642 0.231481 0.308642 0.462963 0.154321 0.231482 0.462963 0.308642 0.462963 0.462963 0.308642 0.231482 0.308642 0.462963 0.154321 0.231481 0.231481 0.308642 0.231481 0.462962 0.154321 0.0771604 0.154321 0.308642 0.462963 0.154321 0.231482 0.462963 0.308642 0.462963 0.231481 0.154321 0.462962 0.231481 0.308642 0.231481 0.308642 0.462963 0.154321 0.231482 0.462963 0.308642 0.462963 0.462962 0.308642 0.231481 0.308642 0.462963 0.154321 0.231482 0.462963 0.308642 0.462963 0.462962 0.308642 0.231482 0.308642 0.462963 0.154321 0.231482 0.462963 0.308642 0.462963 0.462962 0.308642 0.231481 0.308642 0.462963 0.154321 0.231481 0.462963 0.308642 0.462963 0.462962 0.308642 0.231482 0.308642 0.462963 0.154321 0.231482 0.462963 0.308642 0.462963 0.462962 0.308642 0.231482 0.308642 0.462963 0.154321 0.231482 0.462963 0.308642 0.462963 0.462963 0.308642 0.231482 0.308642 0.462963 0.154321 0.231482 0.462963 0.308642 0.462963 0.462962 0.308642 0.231481 0.308642 0.462963 0.154321 0.231481 0.462962 0.308642 0.462963 0.462962 0.308642 0.231481 0.308642 0.462963 0.154321 0.231481 0.462963 0.308642 0.462963 0.462962 0.308642 0.231481 0.308642 0.462963 0.154321 0.231481 0.462963 0.308642 0.462963 0.462962 0.308642 0.231482 0.308642 0.462963 0.154321 0.231481 0.462963 0.308642 0.462963 0.462962 0.308642 0.231482 0.308642 0.462963 0.154321 0.231481 0.462963 0.308642 0.462963 0.462963 0.308642 0.231482 0.308642 0.462964 0.154321 0.231482 0.462963 0.308642 0.462963 0.462963 0.308642 0.231482 0.308642 0.462962 0.154321 0.231481 0.462963 0.308641 0.462963 0.462962 0.308642 0.231482 0.308642 0.462963 0.154321 0.231481 0.462963 0.308642 0.462963 0.462963 0.308642 0.231481 0.308642 0.462963 0.154321 0.231482 0.462963 0.308642 0.462963 0.462963 0.308642 0.231482 0.308642 0.462963 0.154321 0.231481 0.231481 0.308642 0.231481 0.462962 0.154321 0.0771604 0.154321 0.308642 0.462963 0.154321 0.231482 0.462963 0.308642 0.462963 0.231481 0.154321 0.462962 0.231481 0.308642 0.231481 0.308642 0.462963 0.154321 0.231482 0.462963 0.308642 0.462963 0.462962 0.308642 0.231481 0.308642 0.462963 0.154321 0.231482 0.462963 0.308642 0.462963 0.462962 0.308642 0.231482 0.308642 0.462963 0.154321 0.231482 0.462963 0.308642 0.462963 0.462962 0.308642 0.231481 0.308642 0.462963 0.154321 0.231482 0.462963 0.308642 0.462963 0.462962 0.308642 0.231482 0.308642 0.462963 0.154321 0.231482 0.462963 0.308642 0.462963 0.462962 0.308642 0.231482 0.308642 0.462963 0.154321 0.231482 0.462963 0.308642 0.462963 0.462963 0.308642 0.231482 0.308642 0.462963 0.154321 0.231482 0.462963 0.308642 0.462963 0.462962 0.308642 0.231482 0.308642 0.462963 0.154321 0.231481 0.462963 0.308641 0.462962 0.462962 0.308642 0.231481 0.308642 0.462963 0.154321 0.231482 0.462963 0.308642 0.462963 0.462962 0.308642 0.231481 0.308642 0.462963 0.154321 0.231481 0.462963 0.308642 0.462963 0.462962 0.308642 0.231482 0.308642 0.462963 0.154321 0.231481 0.462963 0.308642 0.462963 0.462962 0.308642 0.231482 0.308642 0.462963 0.154321 0.231481 0.462963 0.308642 0.462963 0.462963 0.308642 0.231482 0.308643 0.462963 0.154321 0.231482 0.462963 0.308642 0.462963 0.462963 0.308642 0.231482 0.308642 0.462962 0.154321 0.231481 0.462963 0.308641 0.462963 0.462962 0.308642 0.231482 0.308642 0.462963 0.154321 0.231481 0.462963 0.308642 0.462963 0.462963 0.308642 0.231481 0.308642 0.462963 0.154321 0.231482 0.462963 0.308642 0.462963 0.462963 0.308642 0.231482 0.308642 0.462963 0.154321 0.231481 0.231481 0.308642 0.231481 0.462962 0.154321 0.0771604 0.154321 0.154321 0.462963 0.154321 0.0771605 0.231481 0.308642 0.462963 0.0771604 0.154321 0.231481 0.231481 0.308642 0.231481 0.154321 0.462963 0.154321 0.0771606 0.231481 0.308642 0.462963 0.231481 0.308642 0.231481 0.154321 0.462963 0.154321 0.0771605 0.231481 0.308642 0.462963 0.231481 0.308642 0.231482 0.154321 0.462963 0.154321 0.0771606 0.231481 0.308642 0.462963 0.231481 0.308642 0.231481 0.154321 0.462963 0.154321 0.0771605 0.231481 0.308642 0.462963 0.231481 0.308642 0.231481 0.154321 0.462963 0.154321 0.0771606 0.231482 0.308642 0.462963 0.231481 0.308642 0.231482 0.154321 0.462963 0.154321 0.0771606 0.231482 0.308642 0.462963 0.231481 0.308642 0.231482 0.154321 0.462963 0.154321 0.0771606 0.231482 0.308642 0.462963 0.231481 0.308642 0.231481 0.154321 0.462963 0.154321 0.0771605 0.231481 0.308641 0.462963 0.231481 0.308642 0.231481 0.154321 0.462963 0.154321 0.0771606 0.231482 0.308642 0.462963 0.231481 0.308642 0.231481 0.154321 0.462963 0.154321 0.0771605 0.231481 0.308642 0.462963 0.231481 0.308642 0.231482 0.154321 0.462963 0.154321 0.0771606 0.231482 0.308642 0.462963 0.231481 0.308642 0.231482 0.154321 0.462963 0.154321 0.0771607 0.231482 0.308642 0.462963 0.231482 0.308642 0.231482 0.154321 0.462963 0.154321 0.0771607 0.231482 0.308642 0.462963 0.231481 0.308642 0.231482 0.154321 0.462962 0.154321 0.0771605 0.231481 0.308641 0.462963 0.231481 0.308642 0.231482 0.154321 0.462963 0.154321 0.0771606 0.231481 0.308642 0.462963 0.231482 0.308642 0.231481 0.154321 0.462963 0.154321 0.0771606 0.231482 0.308642 0.462963 0.231481 0.308642 0.231482 0.154321 0.462963 0.154321 0.0771606 0.154321 0.308642 0.231481 0.231481 0.154321 0.0771604 0.308642 0.462962 0.462962 0.308642 0.462963 0.231481 0.154321 0.154321 0.231481 0.154321 0.462963 0.231482 0.231481 0.308642 0.308642 0.462962 0.462962 0.308642 0.462963 0.231481 0.154321 0.462963 0.231481 0.308642 0.308642 0.462962 0.462962 0.308642 0.462963 0.231481 0.154321 0.462963 0.231481 0.308642 0.308642 0.462962 0.462962 0.308642 0.462963 0.231481 0.154321 0.462963 0.231481 0.308642 0.308642 0.462962 0.462962 0.308642 0.462963 0.231481 0.154321 0.462963 0.231481 0.308642 0.308642 0.462962 0.462963 0.308642 0.462963 0.231481 0.154321 0.462963 0.231481 0.308642 0.308642 0.462963 0.462963 0.308642 0.462963 0.231481 0.154321 0.462963 0.231481 0.308642 0.308642 0.462962 0.462962 0.308642 0.462963 0.231481 0.154321 0.462963 0.231481 0.308642 0.308641 0.462962 0.462962 0.308642 0.462963 0.231481 0.154321 0.462963 0.231481 0.308641 0.308642 0.462962 0.462963 0.308642 0.462963 0.231481 0.154321 0.462963 0.231481 0.308642 0.308642 0.462962 0.462962 0.308642 0.462963 0.231481 0.154321 0.462963 0.231481 0.308642 0.308642 0.462963 0.462963 0.308642 0.462963 0.231481 0.154321 0.462963 0.231481 0.308642 0.308642 0.462963 0.462963 0.308642 0.462963 0.231481 0.154321 0.462963 0.231481 0.308641 0.308642 0.462963 0.462963 0.308642 0.462963 0.231482 0.154321 0.462963 0.231481 0.308642 0.308641 0.462962 0.462963 0.308641 0.462963 0.231481 0.15432 0.462962