# vtk DataFile Version 5.1
vtk output
ASCII

DATASET UNSTRUCTURED_GRID
POINTS 931 float
0 0 1.5
0.166667 0 1.5
0.333333 0 1.5
0.5 0 1.5
0.666667 0 1.5
0.833333 0 1.5
1 0 1.5
1.16667 0 1.5
1.33333 0 1.5
1.5 0 1.5
1.66667 0 1.5
1.83333 0 1.5
2 0 1.5
2.16667 0 1.5
2.33333 0 1.5
2.5 0 1.5
2.66667 0 1.5
2.83333 0 1.5
3 0 1.5
0 0.166667 1.5
0.166667 0.166667 1.5
0.333333 0.166667 1.5
0.5 0.166667 1.5
0.666667 0.166667 1.5
0.833333 0.166667 1.5
1 0.166667 1.5
1.16667 0.166667 1.5
1.33333 0.166667 1.5
1.5 0.166667 1.5
1.66667 0.166667 1.5
1.83333 0.166667 1.5
2 0.166667 1.5
2.16667 0.166667 1.5
2.33333 0.166667 1.5
2.5 0.166667 1.5
2.66667 0.166667 1.5
2.83333 0.166667 1.5
3 0.166667 1.5
0 0.333333 1.5
0.166667 0.333333 1.5
0.333333 0.333333 1.5
0.5 0.333333 1.5
0.666667 0.333333 1.5
0.833333 0.333333 1.5
1 0.333333 1.5
1.16667 0.333333 1.5
1.33333 0.333333 1.5
1.5 0.333333 1.5
1.66667 0.333333 1.5
1.83333 0.333333 1.5
2 0.333333 1.5
2.16667 0.333333 1.5
2.33333 0.333333 1.5
2.5 0.333333 1.5
2.66667 0.333333 1.5
2.83333 0.333333 1.5
3 0.333333 1.5
0 0.5 1.5
0.166667 0.5 1.5
0.333333 0.5 1.5
0.5 0.5 1.5
0.666667 0.5 1.5
0.833333 0.5 1.5
1 0.5 1.5
1.16667 0.5 1.5
1.33333 0.5 1.5
1.5 0.5 1.5
1.66667 0.5 1.5
1.83333 0.5 1.5
2 0.5 1.5
2.16667 0.5 1.5
2.33333 0.5 1.5
2.5 0.5 1.5
2.66667 0.5 1.5
2.83333 0.5 1.5
3 0.5 1.5
0 0.666667 1.5
0.166667 0.666667 1.5
0.333333 0.666667 1.5
0.5 0.666667 1.5
0.666667 0.666667 1.5
0.833333 0.666667 1.5
1 0.666667 1.5
1.16667 0.666667 1.5
1.33333 0.666667 1.5
1.5 0.666667 1.5
1.66667 0.666667 1.5
1.83333 0.666667 1.5
2 0.666667 1.5
2.16667 0.666667 1.5
2.33333 0.666667 1.5
2.5 0.666667 1.5
2.66667 0.666667 1.5
2.83333 0.666667 1.5
3 0.666667 1.5
0 0.833333 1.5
0.166667 0.833333 1.5
0.333333 0.833333 1.5
0.5 0.833333 1.5
0.666667 0.833333 1.5
0.833333 0.833333 1.5
1 0.833333 1.5
1.16667 0.833333 1.5
1.33333 0.833333 1.5
1.5 0.833333 1.5
1.66667 0.833333 1.5
1.83333 0.833333 1.5
2 0.833333 1.5
2.16667 0.833333 1.5
2.33333 0.833333 1.5
2.5 0.833333 1.5
2.66667 0.833333 1.5
2.83333 0.833333 1.5
3 0.833333 1.5
0 1 1.5
0.166667 1 1.5
0.333333 1 1.5
0.5 1 1.5
0.666667 1 1.5
0.833333 1 1.5
1 1 1.5
1.16667 1 1.5
1.33333 1 1.5
1.5 1 1.5
1.66667 1 1.5
1.83333 1 1.5
2 1 1.5
2.16667 1 1.5
2.33333 1 1.5
2.5 1 1.5
2.66667 1 1.5
2.83333 1 1.5
3 1 1.5
0 0 1.66667
0.166667 0 1.66667
0.333333 0 1.66667
0.5 0 1.66667
0.666667 0 1.66667
0.833333 0 1.66667
1 0 1.66667
1.16667 0 1.66667
1.33333 0 1.66667
1.5 0 1.66667
1.66667 0 1.66667
1.83333 0 1.66667
2 0 1.66667
2.16667 0 1.66667
2.33333 0 1.66667
2.5 0 1.66667
2.66667 0 1.66667
2.83333 0 1.66667
3 0 1.66667
0 0.166667 1.66667
0.166667 0.166667 1.66667
0.333333 0.166667 1.66667
0.5 0.166667 1.66667
0.666667 0.166667 1.66667
0.833333 0.166667 1.66667
1 0.166667 1.66667
1.16667 0.166667 1.66667
1.33333 0.166667 1.66667
1.5 0.166667 1.66667
1.66667 0.166667 1.66667
1.83333 0.166667 1.66667
2 0.166667 1.66667
2.16667 0.166667 1.66667
2.33333 0.166667 1.66667
2.5 0.166667 1.66667
2.66667 0.166667 1.66667
2.83333 0.166667 1.66667
3 0.166667 1.66667
0 0.333333 1.66667
0.166667 0.333333 1.66667
0.333333 0.333333 1.66667
0.5 0.333333 1.66667
0.666667 0.333333 1.66667
0.833333 0.333333 1.66667
1 0.333333 1.66667
1.16667 0.333333 1.66667
1.33333 0.333333 1.66667
1.5 0.333333 1.66667
1.66667 0.333333 1.66667
1.83333 0.333333 1.66667
2 0.333333 1.66667
2.16667 0.333333 1.66667
2.33333 0.333333 1.66667
2.5 0.333333 1.66667
2.66667 0.333333 1.66667
2.83333 0.333333 1.66667
3 0.333333 1.66667
0 0.5 1.66667
0.166667 0.5 1.66667
0.333333 0.5 1.66667
0.5 0.5 1.66667
0.666667 0.5 1.66667
0.833333 0.5 1.66667
1 0.5 1.66667
1.16667 0.5 1.66667
1.33333 0.5 1.66667
1.5 0.5 1.66667
1.66667 0.5 1.66667
1.83333 0.5 1.66667
2 0.5 1.66667
2.16667 0.5 1.66667
2.33333 0.5 1.66667
2.5 0.5 1.66667
2.66667 0.5 1.66667
2.83333 0.5 1.66667
3 0.5 1.66667
0 0.666667 1.66667
0.166667 0.666667 1.66667
0.333333 0.666667 1.66667
0.5 0.666667 1.66667
0.666667 0.666667 1.66667
0.833333 0.666667 1.66667
1 0.666667 1.66667
1.16667 0.666667 1.66667
1.33333 0.666667 1.66667
1.5 0.666667 1.66667
1.66667 0.666667 1.66667
1.83333 0.666667 1.66667
2 0.666667 1.66667
2.16667 0.666667 1.66667
2.33333 0.666667 1.66667
2.5 0.666667 1.66667
2.66667 0.666667 1.66667
2.83333 0.666667 1.66667
3 0.666667 1.66667
0 0.833333 1.66667
0.166667 0.833333 1.66667
0.333333 0.833333 1.66667
0.5 0.833333 1.66667
0.666667 0.833333 1.66667
0.833333 0.833333 1.66667
1 0.833333 1.66667
1.16667 0.833333 1.66667
1.33333 0.833333 1.66667
1.5 0.833333 1.66667
1.66667 0.833333 1.66667
1.83333 0.833333 1.66667
2 0.833333 1.66667
2.16667 0.833333 1.66667
2.33333 0.833333 1.66667
2.5 0.833333 1.66667
2.66667 0.833333 1.66667
2.83333 0.833333 1.66667
3 0.833333 1.66667
0 1 1.66667
0.166667 1 1.66667
0.333333 1 1.66667
0.5 1 1.66667
0.666667 1 1.66667
0.833333 1 1.66667
1 1 1.66667
1.16667 1 1.66667
1.33333 1 1.66667
1.5 1 1.66667
1.66667 1 1.66667
1.83333 1 1.66667
2 1 1.66667
2.16667 1 1.66667
2.33333 1 1.66667
2.5 1 1.66667
2.66667 1 1.66667
2.83333 1 1.66667
3 1 1.66667
0 0 1.83333
0.166667 0 1.83333
0.333333 0 1.83333
0.5 0 1.83333
0.666667 0 1.83333
0.833333 0 1.83333
1 0 1.83333
1.16667 0 1.83333
1.33333 0 1.83333
1.5 0 1.83333
1.66667 0 1.83333
1.83333 0 1.83333
2 0 1.83333
2.16667 0 1.83333
2.33333 0 1.83333
2.5 0 1.83333
2.66667 0 1.83333
2.83333 0 1.83333
3 0 1.83333
0 0.166667 1.83333
0.166667 0.166667 1.83333
0.333333 0.166667 1.83333
0.5 0.166667 1.83333
0.666667 0.166667 1.83333
0.833333 0.166667 1.83333
1 0.166667 1.83333
1.16667 0.166667 1.83333
1.33333 0.166667 1.83333
1.5 0.166667 1.83333
1.66667 0.166667 1.83333
1.83333 0.166667 1.83333
2 0.166667 1.83333
2.16667 0.166667 1.83333
2.33333 0.166667 1.83333
2.5 0.166667 1.83333
2.66667 0.166667 1.83333
2.83333 0.166667 1.83333
3 0.166667 1.83333
0 0.333333 1.83333
0.166667 0.333333 1.83333
0.333333 0.333333 1.83333
0.5 0.333333 1.83333
0.666667 0.333333 1.83333
0.833333 0.333333 1.83333
1 0.333333 1.83333
1.16667 0.333333 1.83333
1.33333 0.333333 1.83333
1.5 0.333333 1.83333
1.66667 0.333333 1.83333
1.83333 0.333333 1.83333
2 0.333333 1.83333
2.16667 0.333333 1.83333
2.33333 0.333333 1.83333
2.5 0.333333 1.83333
2.66667 0.333333 1.83333
2.83333 0.333333 1.83333
3 0.333333 1.83333
0 0.5 1.83333
0.166667 0.5 1.83333
0.333333 0.5 1.83333
0.5 0.5 1.83333
0.666667 0.5 1.83333
0.833333 0.5 1.83333
1 0.5 1.83333
1.16667 0.5 1.83333
1.33333 0.5 1.83333
1.5 0.5 1.83333
1.66667 0.5 1.83333
1.83333 0.5 1.83333
2 0.5 1.83333
2.16667 0.5 1.83333
2.33333 0.5 1.83333
2.5 0.5 1.83333
2.66667 0.5 1.83333
2.83333 0.5 1.83333
3 0.5 1.83333
0 0.666667 1.83333
0.166667 0.666667 1.83333
0.333333 0.666667 1.83333
0.5 0.666667 1.83333
0.666667 0.666667 1.83333
0.833333 0.666667 1.83333
1 0.666667 1.83333
1.16667 0.666667 1.83333
1.33333 0.666667 1.83333
1.5 0.666667 1.83333
1.66667 0.666667 1.83333
1.83333 0.666667 1.83333
2 0.666667 1.83333
2.16667 0.666667 1.83333
2.33333 0.666667 1.83333
2.5 0.666667 1.83333
2.66667 0.666667 1.83333
2.83333 0.666667 1.83333
3 0.666667 1.83333
0 0.833333 1.83333
0.166667 0.833333 1.83333
0.333333 0.833333 1.83333
0.5 0.833333 1.83333
0.666667 0.833333 1.83333
0.833333 0.833333 1.83333
1 0.833333 1.83333
1.16667 0.833333 1.83333
1.33333 0.833333 1.83333
1.5 0.833333 1.83333
1.66667 0.833333 1.83333
1.83333 0.833333 1.83333
2 0.833333 1.83333
2.16667 0.833333 1.83333
2.33333 0.833333 1.83333
2.5 0.833333 1.83333
2.66667 0.833333 1.83333
2.83333 0.833333 1.83333
3 0.833333 1.83333
0 1 1.83333
0.166667 1 1.83333
0.333333 1 1.83333
0.5 1 1.83333
0.666667 1 1.83333
0.833333 1 1.83333
1 1 1.83333
1.16667 1 1.83333
1.33333 1 1.83333
1.5 1 1.83333
1.66667 1 1.83333
1.83333 1 1.83333
2 1 1.83333
2.16667 1 1.83333
2.33333 1 1.83333
2.5 1 1.83333
2.66667 1 1.83333
2.83333 1 1.83333
3 1 1.83333
0 0 2
0.166667 0 2
0.333333 0 2
0.5 0 2
0.666667 0 2
0.833333 0 2
1 0 2
1.16667 0 2
1.33333 0 2
1.5 0 2
1.66667 0 2
1.83333 0 2
2 0 2
2.16667 0 2
2.33333 0 2
2.5 0 2
2.66667 0 2
2.83333 0 2
3 0 2
0 0.166667 2
0.166667 0.166667 2
0.333333 0.166667 2
0.5 0.166667 2
0.666667 0.166667 2
0.833333 0.166667 2
1 0.166667 2
1.16667 0.166667 2
1.33333 0.166667 2
1.5 0.166667 2
1.66667 0.166667 2
1.83333 0.166667 2
2 0.166667 2
2.16667 0.166667 2
2.33333 0.166667 2
2.5 0.166667 2
2.66667 0.166667 2
2.83333 0.166667 2
3 0.166667 2
0 0.333333 2
0.166667 0.333333 2
0.333333 0.333333 2
0.5 0.333333 2
0.666667 0.333333 2
0.833333 0.333333 2
1 0.333333 2
1.16667 0.333333 2
1.33333 0.333333 2
1.5 0.333333 2
1.66667 0.333333 2
1.83333 0.333333 2
2 0.333333 2
2.16667 0.333333 2
2.33333 0.333333 2
2.5 0.333333 2
2.66667 0.333333 2
2.83333 0.333333 2
3 0.333333 2
0 0.5 2
0.166667 0.5 2
0.333333 0.5 2
0.5 0.5 2
0.666667 0.5 2
0.833333 0.5 2
1 0.5 2
1.16667 0.5 2
1.33333 0.5 2
1.5 0.5 2
1.66667 0.5 2
1.83333 0.5 2
2 0.5 2
2.16667 0.5 2
2.33333 0.5 2
2.5 0.5 2
2.66667 0.5 2
2.83333 0.5 2
3 0.5 2
0 0.666667 2
0.166667 0.666667 2
0.333333 0.666667 2
0.5 0.666667 2
0.666667 0.666667 2
0.833333 0.666667 2
1 0.666667 2
1.16667 0.666667 2
1.33333 0.666667 2
1.5 0.666667 2
1.66667 0.666667 2
1.83333 0.666667 2
2 0.666667 2
2.16667 0.666667 2
2.33333 0.666667 2
2.5 0.666667 2
2.66667 0.666667 2
2.83333 0.666667 2
3 0.666667 2
0 0.833333 2
0.166667 0.833333 2
0.333333 0.833333 2
0.5 0.833333 2
0.666667 0.833333 2
0.833333 0.833333 2
1 0.833333 2
1.16667 0.833333 2
1.33333 0.833333 2
1.5 0.833333 2
1.66667 0.833333 2
1.83333 0.833333 2
2 0.833333 2
2.16667 0.833333 2
2.33333 0.833333 2
2.5 0.833333 2
2.66667 0.833333 2
2.83333 0.833333 2
3 0.833333 2
0 1 2
0.166667 1 2
0.333333 1 2
0.5 1 2
0.666667 1 2
0.833333 1 2
1 1 2
1.16667 1 2
1.33333 1 2
1.5 1 2
1.66667 1 2
1.83333 1 2
2 1 2
2.16667 1 2
2.33333 1 2
2.5 1 2
2.66667 1 2
2.83333 1 2
3 1 2
0 0 2.16667
0.166667 0 2.16667
0.333333 0 2.16667
0.5 0 2.16667
0.666667 0 2.16667
0.833333 0 2.16667
1 0 2.16667
1.16667 0 2.16667
1.33333 0 2.16667
1.5 0 2.16667
1.66667 0 2.16667
1.83333 0 2.16667
2 0 2.16667
2.16667 0 2.16667
2.33333 0 2.16667
2.5 0 2.16667
2.66667 0 2.16667
[...]
POINT_DATA 931
SCALARS weights float 1
LOOKUP_TABLE default
1.15741 1.54321 1.54321 1.54321 1.54321 1.54321 1.54321 1.54321 1.54321 1.54321 1.54321 1.54321 1.54321 1.54321 1.54321 1.54321 1.54321 1.54321 0.385802 1.54321 2.31481 2.31481 2.31481 2.31481 2.31481 2.31482 2.31481 2.31481 2.31482 2.31481 2.31481 2.31482 2.31482 2.31481 2.31481 2.31482 2.31481 0.771604 1.54321 2.31481 2.31481 2.31481 2.31481 2.31481 2.31481 2.31481 2.31481 2.31481 2.31481 2.31481 2.31481 2.31482 2.31481 2.31481 2.31482 2.31481 0.771604 1.54321 2.31481 2.31481 2.31481 2.31481 2.31481 2.31481 2.31481 2.31481 2.31481 2.31481 2.31481 2.31481 2.31482 2.31481 2.31481 2.31482 2.31481 0.771604 1.54321 2.31481 2.31481 2.31481 2.31481 2.31481 2.31482 2.31481 2.31481 2.31482 2.31481 2.31481 2.31482 2.31482 2.31481 2.31481 2.31482 2.31481 0.771604 1.54321 2.31481 2.31481 2.31481 2.31481 2.31481 2.31481 2.31481 2.31481 2.31481 2.31481 2.31481 2.31481 2.31482 2.31481 2.31481 2.31482 2.31481 0.771604 0.385802 0.771605 0.771605 0.771605 0.771605 0.771605 0.771605 0.771605 0.771604 0.771605 0.771605 0.771604 0.771605 0.771605 0.771604 0.771604 0.771605 0.771604 0.385802 1.54321 2.31482 2.31482 2.31482 2.31482 2.31482 2.31482 2.31482 2.31481 2.31482 2.31482 2.31481 2.31482 2.31482 2.31481 2.31482 2.31482 2.31481 0.771604 2.31482 4.62963 4.62963 4.62963 4.62963 4.62963 4.62963 4.62963 4.62963 4.62963 4.62963 4.62963 4.62963 4.62963 4.62963 4.62963 4.62963 4.62963 2.31481 2.31482 4.62963 4.62963 4.62963 4.62963 4.62963 4.62963 4.62963 4.62963 4.62963 4.62963 4.62963 4.62963 4.62963 4.62963 4.62963 4.62963 4.62963 2.31481 2.31482 4.62963 4.62963 4.62963 4.62963 4.62963 4.62963 4.62963 4.62963 4.62963 4.62963 4.62963 4.62963 4.62963 4.62963 4.62963 4.62963 4.62963 2.31481 2.31482 4.62963 4.62963 4.62963 4.62963 4.62963 4.62963 4.62963 4.62963 4.62963 4.62963 4.62963 4.62963 4.62963 4.62963 4.62963 4.62963 4.62963 2.31481 2.31482 4.62963 4.62963 4.62963 4.62963 4.62963 4.62963 4.62963 4.62963 4.62963 4.62963 4.62963 4.62963 4.62963 4.62963 4.62963 4.62963 4.62963 2.31481 0.771605 2.31481 2.31481 2.31481 2.31481 2.31481 2.31481 2.31481 2.31481 2.31481 2.31481 2.31481 2.31481 2.31482 2.31481 2.31481 2.31482 2.31481 1.54321 1.54321 2.31482 2.31481 2.31482 2.31482 2.31481 2.31482 2.31481 2.31481 2.31482 2.31481 2.31481 2.31482 2.31482 2.31481 2.31481 2.31482 2.31481 0.771604 2.31482 4.62963 4.62963 4.62963 4.62963 4.62963 4.62963 4.62963 4.62963 4.62963 4.62963 4.62963 4.62963 4.62963 4.62963 4.62963 4.62963 4.62963 2.31481 2.31481 4.62963 4.62963 4.62963 4.62963 4.62963 4.62963 4.62963 4.62963 4.62963 4.62963 4.62963 4.62963 4.62963 4.62963 4.62963 4.62963 4.62963 2.31481 2.31482 4.62963 4.62963 4.62963 4.62963 4.62963 4.62963 4.62963 4.62963 4.62963 4.62963 4.62963 4.62963 4.62963 4.62963 4.62963 4.62963 4.62963 2.31481 2.31482 4.62963 4.62963 4.62963 4.62963 4.62963 4.62963 4.62963 4.62963 4.62963 4.62963 4.62963 4.62963 4.62963 4.62963 4.62963 4.62963 4.62963 2.31481 2.31481 4.62963 4.62963 4.62963 4.62963 4.62963 4.62963 4.62963 4.62963 4.62963 4.62963 4.62963 4.62963 4.62963 4.62963 4.62963 4.62963 4.62963 2.31481 0.771605 2.31481 2.31481 2.31481 2.31481 2.31481 2.31481 2.31482 2.31481 2.31481 2.31482 2.31481 2.31481 2.31482 2.31482 2.31481 2.31482 2.31482 1.54321 1.54321 2.31482 2.31482 2.31482 2.31482 2.31482 2.31482 2.31482 2.31481 2.31482 2.31482 2.31481 2.31482 2.31482 2.31481 2.31482 2.31482 2.31481 0.771604 2.31482 4.62963 4.62963 4.62963 4.62963 4.62963 4.62963 4.62963 4.62963 4.62963 4.62963 4.62963 4.62963 4.62963 4.62963 4.62963 4.62963 4.62963 2.31481 2.31482 4.62963 4.62963 4.62963 4.62963 4.62963 4.62963 4.62963 4.62963 4.62963 4.62963 4.62963 4.62963 4.62963 4.62963 4.62963 4.62963 4.62963 2.31481 2.31482 4.62963 4.62963 4.62963 4.62963 4.62963 4.62963 4.62963 4.62963 4.62963 4.62963 4.62963 4.62963 4.62963 4.62963 4.62963 4.62963 4.62963 2.31481 2.31482 4.62963 4.62963 4.62963 4.62963 4.62963 4.62963 4.62963 4.62963 4.62963 4.62963 4.62963 4.62963 4.62963 4.62963 4.62963 4.62963 4.62963 2.31481 2.31482 4.62963 4.62963 4.62963 4.62963 4.62963 4.62963 4.62963 4.62963 4.62963 4.62963 4.62963 4.62963 4.62963 4.62963 4.62963 4.62963 4.62963 2.31481 0.771605 2.31481 2.31481 2.31481 2.31481 2.31481 2.31481 2.31481 2.31481 2.31481 2.31481 2.31481 2.31481 2.31482 2.31481 2.31481 2.31482 2.31481 1.54321 1.54321 2.31482 2.31482 2.31482 2.31482 2.31482 2.31482 2.31482 2.31482 2.31482 2.31482 2.31482 2.31482 2.31482 2.31481 2.31482 2.31482 2.31481 0.771605 2.31482 4.62963 4.62963 4.62963 4.62963 4.62963 4.62963 4.62963 4.62963 4.62963 4.62963 4.62963 4.62963 4.62963 4.62963 4.62963 4.62963 4.62963 2.31481 2.31482 4.62963 4.62963 4.62963 4.62963 4.62963 4.62963 4.62963 4.62963 4.62963 4.62963 4.62963 4.62963 4.62963 4.62963 4.62963 4.62963 4.62963 2.31481 2.31482 4.62963 4.62963 4.62963 4.62963 4.62963 4.62963 4.62963 4.62963 4.62963 4.62963 4.62963 4.62963 4.62963 4.62963 4.62963 4.62963 4.62963 2.31481 2.31482 4.62963 4.62963 4.62963 4.62963 4.62963 4.62963 4.62963 4.62963 4.62963 4.62963 4.62963 4.62963 4.62963 4.62963 4.62963 4.62963 4.62963 2.31481 2.31482 4.62963 4.62963 4.62963 4.62963 4.62963 4.62963 4.62963 4.62963 4.62963 4.62963 4.62963 4.62963 4.62963 4.62963 4.62963 4.62963 4.62963 2.31481 0.771605 2.31482 2.31482 2.31482 2.31482 2.31482 2.31482 2.31482 2.31481 2.31482 2.31482 2.31481 2.31482 2.31482 2.31482 2.31481 2.31482 2.31482 1.54321 1.54321 2.31481 2.31481 2.31481 2.31481 2.31481 2.31481 2.31481 2.31481 2.31481 2.31481 2.31481 2.31481 2.31481 2.31481 2.31481 2.31481 2.31481 0.771604 2.31481 4.62963 4.62963 4.62963 4.62963 4.62963 4.62963 4.62963 4.62963 4.62963 4.62963 4.62963 4.62963 4.62963 4.62963 4.62963 4.62963 4.62963 2.31481 2.31481 4.62963 4.62963 4.62963 4.62963 4.62963 4.62963 4.62963 4.62963 4.62963 4.62963 4.62963 4.62963 4.62963 4.62963 4.62963 4.62963 4.62963 2.31481 2.31481 4.62963 4.62963 4.62963 4.62963 4.62963 4.62963 4.62963 4.62963 4.62963 4.62963 4.62963 4.62963 4.62963 4.62963 4.62963 4.62963 4.62963 2.31481 2.31481 4.62963 4.62963 4.62963 4.62963 4.62963 4.62963 4.62963 4.62963 4.62963 4.62963 4.62963 4.62963 4.62963 4.62963 4.62963 4.62963 4.62963 2.31481 2.31481 4.62963 4.62963 4.62963 4.62963 4.62963 4.62963 4.62963 4.62963 4.62963 4.62963 4.62963 4.62963 4.62963 4.62963 4.62963 4.62963 4.62963 2.31481 0.771605 2.31481 2.31481 2.31481 2.31481 2.31481 2.31481 2.31482 2.31481 2.31481 2.31482 2.31481 2.31481 2.31482 2.31481 2.31481 2.31482 2.31481 1.54321 0.385802 0.771604 0.771604 0.771604 0.771604 0.771604 0.771604 0.771604 0.771604 0.771604 0.771604 0.771604 0.771604 0.771605 0.771604 0.771604 0.771605 0.771604 0.385802 0.771604 2.31481 2.31481 2.31481 2.31481 2.31481 2.31481 2.31481 2.31481 2.31481 2.31481 2.31481 2.31481 2.31481 2.31481 2.31481 2.31481 2.31481 1.54321 0.771604 2.31481 2.31481 2.31481 2.31481 2.31481 2.31481 2.31481 2.31481 2.31481 2.31481 2.31481 2.31481 2.31481 2.31481 2.31481 2.31481 2.31481 1.54321 0.771604 2.31481 2.31481 2.31481 2.31481 2.31481 2.31481 2.31481 2.31481 2.31481 2.31481 2.31481 2.31481 2.31481 2.31481 2.31481 2.31481 2.31481 1.54321 0.771604 2.31481 2.31481 2.31481 2.31481 2.31481 2.31481 2.31481 2.31481 2.31481 2.31481 2.31481 2.31481 2.31481 2.31481 2.31481 2.31481 2.31481 1.54321 0.771604 2.31481 2.31481 2.31481 2.31481 2.31481 2.31481 2.31481 2.31481 2.31481 2.31481 2.31481 2.31481 2.31481 2.31481 2.31481 2.31481 2.31481 1.54321 0.385802 1.54321 1.54321 1.54321 1.54321 1.54321 1.54321 1.54321 1.54321 1.54321 1.54321 1.54321 1.54321 1.54321 1.54321 1.54321 1.54321 1.54321 1.1574 
VECTORS u float
0 0 0  0.0192438 0.226355 -0.124027  0.0296508 0.465542 -0.170012  0.0362532 0.702273 -0.132217  0.0403503 0.910531 -0.0152285  0.0424011 1.06583 0.166579  0.0429666 1.14953 0.390912  0.0427874 1.15159 0.630219  0.0425678 1.07209 0.855193  0.0427179 0.921191 1.03853  0.043172 0.717652 1.15829  0.0433334 0.486393 1.2005  0.042186 0.255318 1.16065  0.0385492 0.0519213 1.0441  0.0309596 -0.0999979 0.865647  0.0188413 -0.18374 0.646902  0.00498533 -0.191534 0.411882  -0.0019834 -0.124391 0.185274  0 -3.57628e-07 -3.57628e-07  0 1.49012e-08 0  -0.00620756 0.184361 -0.0747771  -0.00606781 0.392843 -0.0840271  -0.00410098 0.592231 -0.0203865  -0.00230759 0.75796 0.108563  -0.00140977 0.869697 0.287437  -0.00136268 0.913529 0.49436  -0.00172055 0.884062 0.703757  -0.00199044 0.785197 0.889835  -0.00190926 0.629483 1.02998  -0.00159574 0.436288 1.10754  -0.00155199 0.229206 1.11363  -0.00250578 0.0331411 1.04794  -0.00511026 -0.128555 0.918488  -0.00982285 -0.236698 0.74067  -0.0160215 -0.27852 0.535205  -0.0201449 -0.248456 0.325614  -0.0141346 -0.148652 0.138002  0 -1.93715e-07 -3.57628e-07  0 0 0  -0.00827147 0.172291 -0.0252734  -0.00927156 0.349547 0.0129648  -0.0075134 0.507437 0.111553  -0.00558823 0.622909 0.260447  -0.00447887 0.68047 0.441365  -0.004197 0.672522 0.63165  -0.00432873 0.600091 0.807478  -0.00443661 0.472497 0.94712  -0.00430965 0.305863 1.03372  -0.00405562 0.120833 1.05722  -0.00404084 -0.0601045 1.01525  -0.00470591 -0.21525 0.913095  -0.00630331 -0.326023 0.762869  -0.00876546 -0.378991 0.582178  -0.0112262 -0.367314 0.392249  -0.0118289 -0.29219 0.216718  -0.00764775 -0.164009 0.0799675  0 -8.9407e-08 -3.57628e-07  0 0 0  0.000290394 0.167514 0.0319402  0.003795 0.315816 0.121837  0.00781178 0.427684 0.259912  0.0107682 0.4866 0.430478  0.0122325 0.483476 0.612247  0.0125839 0.418234 0.782176  0.0124459 0.299136 0.918933  0.0123175 0.141313 1.00573  0.0123935 -0.0354619 1.03231  0.0125535 -0.209435 0.995986  0.0124773 -0.359552 0.901575  0.0118341 -0.467832 0.760618  0.0104787 -0.521261 0.589925  0.00852418 -0.513278 0.409733  0.00642347 -0.444627 0.241719  0.00462627 -0.324271 0.107171  0.00197554 -0.171597 0.0238513  0 0 -3.57628e-07  0 0 0  0.0122099 0.161073 0.0961272  0.0211262 0.279369 0.239273  0.0266248 0.343039 0.416091  0.0292171 0.342955 0.60585  0.029723 0.277899 0.784984  0.0291491 0.155567 0.930932  0.0283656 -0.00875151 1.0255  0.0278758 -0.194484 1.05721  0.0277567 -0.378585 1.02255  0.0277437 -0.538501 0.926251  0.0274044 -0.654897 0.78037  0.0263402 -0.713853 0.60275  0.0243456 -0.708408 0.414842  0.0214467 -0.639409 0.239208  0.0179343 -0.515363 0.0969105  0.0142426 -0.3516 0.00514066  0.00848079 -0.173039 -0.0265554  0 1.19209e-07 -3.57628e-07  0 0 0  0.0201324 0.14952 0.162125  0.0300228 0.235753 0.355733  0.0334348 0.251832 0.567142  0.0331897 0.195266 0.772608  0.0312415 0.0719789 0.947206  0.0289754 -0.103406 1.06916  0.027249 -0.309371 1.12323  0.0263546 -0.520456 1.10276  0.0260855 -0.7106 1.01044  0.02591 -0.856464 0.857876  0.0252017 -0.940308 0.663982  0.0234725 -0.952127 0.452596  0.0205407 -0.890869 0.249508  0.0165741 -0.764608 0.0792068  0.0121217 -0.589362 -0.0382822  0.00822425 -0.386385 -0.090054  0.00672984 -0.17677 -0.0723354  0 2.38419e-07 -3.57628e-07  0 0 0  0.013019 0.130746 0.210118  0.0174178 0.190679 0.445038  0.0161301 0.169588 0.688687  0.0121896 0.0669185 0.913533  0.00767612 -0.106689 1.09158  0.00388563 -0.33083 1.20007  0.00143242 -0.578206 1.22499  0.000310898 -0.818361 1.163  0 -1.02166 1.02164  -0.000310898 -1.16301 0.818341  -0.00143337 -1.22499 0.578184  -0.00388741 -1.20005 0.33081  -0.00767827 -1.09156 0.106675  -0.0121915 -0.913511 -0.0669265  -0.0161314 -0.688669 -0.169589  -0.0174186 -0.445024 -0.190677  -0.0130193 -0.210111 -0.130744  0 3.57628e-07 -3.57628e-07  0 0 0  0.0263772 0.168557 -0.147819  0.0425428 0.364144 -0.226608  0.0515484 0.571012 -0.231846  0.0568975 0.76536 -0.164357  0.059807 0.9241 -0.0334079  0.0610042 1.02823 0.144412  0.0611888 1.06533 0.347027  0.0610285 1.03125 0.549507  0.0610027 0.930665 0.72721  0.0612482 0.776274 0.858824  0.061476 0.587099 0.928866  0.0609946 0.386038 0.929344  0.0588384 0.19712 0.860597  0.0540049 0.0427089 0.7316  0.0450127 -0.0593947 0.558795  0.0308232 -0.0994928 0.363479  0.0132105 -0.077377 0.168667  0 -3.57628e-07 -2.38419e-07  0 1.49012e-08 0  0.00391842 0.132455 -0.0871236  0.0106279 0.296225 -0.122378  0.0142118 0.459308 -0.100148  0.0165563 0.604144 -0.0221863  0.0178635 0.713263 0.10177  0.018279 0.773349 0.256159  0.0181359 0.777205 0.421759  0.0178417 0.724684 0.578159  0.0176989 0.622622 0.706343  0.0177714 0.48382 0.791  0.0178392 0.32532 0.822254  0.0174553 0.166283 0.796632  0.0161092 0.0257846 0.717298  0.0134482 -0.0792679 0.593826  0.00909257 -0.136449 0.441168  0.00348854 -0.139437 0.277548  -0.000765324 -0.0895289 0.123043  0 -2.23517e-07 -2.38419e-07  0 0 0  0.00115758 0.120672 -0.0302526  0.00128669 0.24772 -0.0195361  0.00334489 0.366605 0.0373667  0.00535804 0.458674 0.133296  0.00666571 0.512239 0.255745  0.0072062 0.520888 0.389339  0.00722444 0.483836 0.517572  0.0070492 0.405943 0.624795  0.00692248 0.29704 0.698115  0.00690591 0.170631 0.728901  0.00687635 0.0421821 0.713703  0.00659871 -0.0727411 0.65453  0.0058558 -0.160261 0.558513  0.00457644 -0.209753 0.437148  0.00274301 -0.215362 0.304913  0.00049758 -0.177122 0.177704  -0.00107098 -0.101315 0.0711367  0 -8.9407e-08 -2.38419e-07  0 0 0  0.00245528 0.110977 0.0250226  0.00411081 0.208836 0.0862259  0.00693941 0.282214 0.181442  0.00932628 0.319013 0.297658  0.0106952 0.31391 0.419881  0.011174 0.267755 0.532856  0.0111293 0.186536 0.622786  0.010909 0.0804629 0.678876  0.0107088 -0.0373139 0.69455  0.0105417 -0.152319 0.668168  0.0102834 -0.250501 0.603142  0.00976968 -0.319906 0.50747  0.00889993 -0.352096 0.39277  0.00769305 -0.343228 0.272932  0.00616169 -0.294799 0.162324  0.00436068 -0.213276 0.0739335  0.00188708 -0.110876 0.0181942  0 0 -2.38419e-07  0 0 0  0.00399223 0.0999324 0.0794553  0.00864092 0.170285 0.193121  0.0117567 0.198914 0.326338  0.0132825 0.180644 0.462232  0.0135677 0.117313 0.583926  0.0131482 0.0167937 0.676452  0.0125334 -0.108419 0.728619  0.012027 -0.24288 0.734253  0.0116829 -0.370075 0.692884  0.0113555 -0.474431 0.609748  0.0108147 -0.543192 0.495107  0.00987577 -0.567951 0.362998  0.00850749 -0.545685 0.22953  0.00687194 -0.479181 0.110944  0.00525069 -0.3768 0.0214579  0.00397086 -0.251364 -0.0286217  0.00263524 -0.119545 -0.0341742  0 1.19209e-07 -2.38419e-07  0 0 0  0.00272891 0.0870027 0.132306  0.00676063 0.129558 0.296665  0.00734502 0.11518 0.465401  0.00613189 0.0446452 0.619739  0.00424445 -0.07399 0.741329  0.00241983 -0.226563 0.815261  0.00109315 -0.394522 0.832398  0.00035584 -0.557322 0.790594  2.38419e-07 -0.694986 0.694979  -0.000355601 -0.790595 0.557312  -0.00109363 -0.832393 0.394511  -0.00242102 -0.815251 0.226551  -0.004246 -0.741314 0.0739813  -0.00613308 -0.619723 -0.0446498  -0.00734568 -0.465388 -0.115181  -0.00676084 -0.296656 -0.129557  -0.00272894 -0.1323 -0.0870014  0 2.38419e-07 -2.38419e-07  0 0 0  -0.00673003 0.0723364 0.176777  -0.00822476 0.0900537 0.386396  -0.0121228 0.0382787 0.589376  -0.0165758 -0.0792156 0.764625  -0.0205426 -0.249521 0.890884  -0.023474 -0.452612 0.952135  -0.0252023 -0.663999 0.940307  -0.02591 -0.85789 0.856456  -0.0260853 -1.01045 0.710585  -0.0263543 -1.10276 0.520438  -0.0272499 -1.12322 0.309354  -0.0289772 -1.06915 0.103391  -0.0312436 -0.947186 -0.0719891  -0.0331914 -0.772587 -0.19527  -0.0334358 -0.567124 -0.251832  -0.0300236 -0.355721 -0.23575  -0.0201325 -0.162119 -0.149517  0 3.57628e-07 -2.38419e-07  0 0 0  0.0129338 0.0978476 -0.164117  0.0270032 0.241647 -0.27772  0.0367122 0.414925 -0.332573  0.042742 0.595843 -0.323001  0.0463212 0.762111 -0.250957  0.0481178 0.893614 -0.125787  0.0487272 0.974522 0.036894  0.0487554 0.995251 0.217027  0.0487279 0.953673 0.392596  0.0489482 0.855298 0.542384  0.0493997 0.712428 0.648528  0.0497062 0.542526 0.698531  0.049118 0.366088 0.686667  0.0465262 0.204072 0.615006  0.0415092 0.0755023 0.493351  0.0315299 -0.0053122 0.337772  0.0149055 -0.0327403 0.16722  0 -3.57628e-07 -1.19209e-07  0 1.49012e-08 0  0.00132376 0.0764547 -0.0997921  0.0100086 0.189033 -0.163341  0.0148352 0.315046 -0.185436  0.0175084 0.440669 -0.162099  0.0190451 0.550536 -0.0960367  0.0197222 0.631219 0.00424314  0.0197892 0.673039 0.126134  0.0195656 0.671193 0.254596  0.0193594 0.626253 0.374004  0.0193553 0.544007 0.470026  0.0195391 0.434648 0.531285  0.0196857 0.311482 0.550598  0.0194249 0.189364 0.52567  0.0183539 0.0830743 0.459451  0.016046 0.00508519 0.360794  0.0117726 -0.0358835 0.241617  0.00537014 -0.0365349 0.115904  0 -2.23517e-07 -1.19209e-07  0 0 0  -9.59635e-05 0.0652673 -0.0419686  0.00224078 0.143315 -0.0579373  0.00523067 0.224327 -0.0440456  0.00712472 0.295797 -0.00272191  0.00832367 0.348888 0.0614215  0.00890696 0.377132 0.140269  0.00900924 0.377279 0.223969  0.00884593 0.349576 0.302271  0.00863457 0.297659 0.365749  0.00851679 0.22806 0.406876  0.00851643 0.149377 0.420875  0.00854492 0.0712035 0.40622  0.00845432 0.00299025 0.364721  0.00812888 -0.0469994 0.301292  0.00737524 -0.0729044 0.22377  0.00560689 -0.0723507 0.141355  0.00271821 -0.0462741 0.0633174  0 -1.19209e-07 -1.19209e-07  0 0 0  -0.000410423 0.0546094 0.0129676  0.00133184 0.103676 0.047099  0.00299257 0.139564 0.0974302  0.00459772 0.15654 0.158789  0.00561923 0.151733 0.222924  0.00604749 0.125882 0.28166  0.00605273 0.0823942 0.327813  0.00583375 0.026771 0.355893  0.00554502 -0.0340609 0.362665  0.00526893 -0.0925724 0.347488  0.00502527 -0.141535 0.31236  0.0048027 -0.174903 0.261672  0.00459814 -0.188583 0.20167  0.00442743 -0.180996 0.139695  0.00423813 -0.15342 0.0832013  0.00385308 -0.109549 0.038412  0.00247741 -0.0557852 0.0101881  0 0 -1.19209e-07  0 0 0  -0.0008699 0.0439912 0.0662128  0.000290006 0.0655566 0.149872  0.00112516 0.0580339 0.237867  0.00162375 0.0212528 0.319791  0.0016216 -0.0409008 0.384823  0.00128019 -0.120777 0.424751  0.000824332 -0.208477 0.434766  0.000389576 -0.293211 0.413805  7.15256e-07 -0.364578 0.364579  -0.000388503 -0.413801 0.29321  -0.000823498 -0.43476 0.208474  -0.00127983 -0.424743 0.120773  -0.00162148 -0.384812 0.0408977  -0.00162387 -0.31978 -0.0212543  -0.00112534 -0.237859 -0.0580344  -0.000290155 -0.149866 -0.0655564  0.000869751 -0.0662096 -0.0439911  0 1.19209e-07 -1.19209e-07  0 0 0  -0.00263511 0.034174 0.11955  -0.00397116 0.0286206 0.251371  -0.00525129 -0.0214607 0.37681  -0.00687283 -0.110949 0.479192  -0.00850844 -0.229538 0.545694  -0.00987637 -0.363006 0.567956  -0.0108148 -0.495114 0.543193  -0.011355 -0.609752 0.474429  -0.011682 -0.692884 0.370068  -0.0120265 -0.734247 0.242872  -0.0125333 -0.728609 0.108412  -0.0131487 -0.676438 -0.0168002  -0.0135682 -0.58391 -0.117316  -0.0132828 -0.462217 -0.180644  -0.0117569 -0.326326 -0.198913  -0.00864077 -0.193113 -0.170283  -0.00399208 -0.0794514 -0.0999308  0 2.38419e-07 -1.19209e-07  0 0 0  -0.00848073 0.0265547 0.173046  -0.0142427 -0.00514251 0.35161  -0.0179347 -0.0969158 0.515375  -0.0214477 -0.239218 0.639421  -0.0243468 -0.414855 0.708416  -0.0263408 -0.602764 0.713856  -0.0274043 -0.780382 0.654893  -0.0277429 -0.926259 0.538492  -0.0277555 -1.02256 0.37857  -0.0278749 -1.0572 0.194468  -0.0283657 -1.02549 0.00873792  -0.0291498 -0.930913 -0.155577  -0.0297239 -0.784962 -0.277904  -0.0292182 -0.60583 -0.342955  -0.0266256 -0.416076 -0.343036  -0.0211265 -0.239264 -0.279365  -0.0122097 -0.0961227 -0.16107  0 3.57628e-07 -1.19209e-07  0 0 0  -0.00374699 0.0289369 -0.17169  -0.000332803 0.117602 -0.316686  0.00585991 0.250679 -0.421324  0.0109467 0.412617 -0.473016  0.01435 0.583155 -0.465312  0.0162804 0.741334 -0.399165  0.0170608 0.867891 -0.282624  0.017159 0.947453 -0.129913  0.017099 0.970473 0.0403161  0.0173112 0.934421 0.207332  0.0180012 0.84401 0.350945  0.0190873 0.71047 0.453921  0.0200982 0.550106 0.504023  0.0198817 0.382097 0.495832  0.0171571 0.225643 0.430759  0.0145109 0.100154 0.317219  0.00726891 0.0198708 0.169439  0 -3.57628e-07 0  0 1.49012e-08 0  -0.00131784 0.0197852 -0.110181  0.00104025 0.0782523 -0.204254  0.00487387 0.165554 -0.271458  0.00759649 0.271248 -0.303946  0.00927234 0.382175 -0.297541  0.0101773 0.48466 -0.253095  0.0104561 0.566326 -0.176174  0.010334 0.617435 -0.0761845  0.0101075 0.63199 0.0