# vtk DataFile Version 5.1
vtk output
ASCII

DATASET UNSTRUCTURED_GRID
POINTS 7842 float
-0.0700669 0.025 -0.061452
0.0226105 0.025 0.0971206
0.0910419 0.025 -0.0787816
-0.0298121 0.025 -0.00334535
0.00108052 0.025 0.0495122
-0.014521 0.025 -0.0655543
0.0605991 0.025 0.0360701
0.039182 0.025 -0.071331
0.0834095 0.025 -0.0225642
0.0277202 0.025 -0.0121174
0.0811784 0.025 -0.0560817
0.0914008 0.025 -0.0677776
0.0969315 0.025 -0.0749077
-0.430783 0.025 0.0680089
-0.481198 0.025 0.0841755
-0.461959 0.025 0.163519
-0.483267 0.025 0.0469847
-0.455107 0.025 0.0756309
-0.469466 0.025 0.0811552
-0.438564 0.025 0.0980079
-0.475119 0.025 0.111669
-0.450019 0.025 0.136511
-0.468707 0.025 0.138117
-0.444782 0.025 0.0540631
-0.468068 0.025 0.0674331
-0.465763 0.025 0.124545
-0.459461 0.025 0.0498395
-0.468758 0.025 0.0550364
-0.472865 0.025 0.0857002
-0.458678 0.025 0.10824
-0.459167 0.025 0.0627468
-0.448593 0.025 0.0839316
-0.467083 0.025 0.0965122
-0.423608 0.025 0.0338641
-0.444136 0.025 0.134425
-0.431966 0.025 0.0842063
-0.425336 0.025 0.0406668
-0.425926 0.025 0.0525458
-0.432357 0.025 0.0928246
-0.444047 0.025 0.0416628
-0.461031 0.025 0.0470139
-0.444769 0.025 0.0458514
-0.452324 0.025 0.0890095
-0.355551 0.025 -0.347738
-0.370809 0.025 -0.361779
-0.329853 0.025 -0.206686
-0.319733 0.025 -0.430841
-0.361581 0.025 -0.351052
-0.367001 0.025 -0.358423
-0.348527 0.025 -0.302444
-0.359096 0.025 -0.311479
-0.342385 0.025 -0.256457
-0.345444 0.025 -0.259781
-0.344885 0.025 -0.373154
-0.351353 0.025 -0.388567
-0.326129 0.025 -0.279525
-0.332554 0.025 -0.405772
-0.334328 0.025 -0.411587
-0.322756 0.025 -0.354243
-0.354193 0.025 -0.306927
-0.347954 0.025 -0.382457
-0.33745 0.025 -0.330137
-0.339711 0.025 -0.334744
-0.335468 0.025 -0.212826
-0.326976 0.025 -0.413747
-0.332175 0.025 -0.204844
-0.331861 0.025 -0.208669
-0.329128 0.025 -0.259389
-0.327195 0.025 -0.276499
-0.328152 0.025 -0.346366
-0.325916 0.025 -0.345757
-0.340339 0.025 -0.246849
-0.336624 0.025 -0.392618
-0.347169 0.025 -0.304841
-0.345234 0.025 -0.366559
-0.327274 0.025 -0.276206
-0.342405 0.025 -0.257191
-0.337273 0.025 -0.318706
-0.336108 0.025 -0.323571
-0.322968 0.025 -0.420133
-0.321549 0.025 -0.426439
-0.333852 0.025 -0.397862
-0.324582 0.025 -0.349642
-0.0601536 0.025 -0.20142
-0.0546971 0.025 -0.160695
-0.0373673 0.025 -0.181629
-0.0554006 0.025 -0.185326
-0.0535817 0.025 -0.171751
-0.051304 0.025 -0.194255
-0.050662 0.025 -0.168269
-0.0437085 0.025 -0.187658
-0.0448854 0.025 -0.175247
-0.0495159 0.025 -0.180002
-0.0668435 0.025 -0.1741
-0.0644845 0.025 -0.170037
-0.058268 0.025 -0.166795
-0.0560901 0.025 -0.177353
-0.0450198 0.025 -0.180652
-0.0516262 0.025 -0.174172
-0.0438126 0.025 -0.185933
-0.042685 0.025 -0.184832
-0.0393438 0.025 -0.18406
-0.0486002 0.025 -0.183156
-0.0581481 0.025 -0.179158
-0.0482776 0.025 -0.181347
-0.333748 0.025 -0.118237
-0.347011 0.025 -0.113407
-0.297879 0.025 -0.16254
-0.339422 0.025 -0.115719
-0.343642 0.025 -0.117353
-0.321598 0.025 -0.132612
-0.328083 0.025 -0.130315
-0.311426 0.025 -0.151855
-0.311706 0.025 -0.146693
-0.334102 0.025 -0.14637
-0.340666 0.025 -0.143759
-0.306196 0.025 -0.178016
-0.332403 0.025 -0.180974
-0.334947 0.025 -0.174852
-0.316854 0.025 -0.192732
-0.32405 0.025 -0.132472
-0.337785 0.025 -0.145994
-0.322145 0.025 -0.164338
-0.322156 0.025 -0.161153
-0.316342 0.025 -0.169516
-0.309775 0.025 -0.168212
-0.304254 0.025 -0.167466
-0.32324 0.025 -0.182699
-0.31085 0.025 -0.176652
-0.328135 0.025 -0.199517
-0.320995 0.025 -0.192044
-0.32208 0.025 -0.151521
-0.330079 0.025 -0.176536
-0.32687 0.025 -0.133074
-0.330741 0.025 -0.142538
-0.317404 0.025 -0.182129
-0.316983 0.025 -0.149503
-0.326499 0.025 -0.162943
-0.320647 0.025 -0.161856
-0.331565 0.025 -0.173096
-0.318907 0.025 -0.192436
0.232361 0.025 0.0235181
0.110839 0.025 0.0784083
0.180756 0.025 0.0538742
0.197359 0.025 -0.00683743
0.150253 0.025 -0.0409373
0.138135 0.025 0.0175273
0.189211 0.025 0.00601186
0.137598 0.025 -0.0170342
0.149252 0.025 -0.029945
-0.364137 0.025 -0.0221551
-0.415572 0.025 -0.000644062
-0.39432 0.025 -0.11223
-0.382502 0.025 -0.0155733
-0.397797 0.025 -0.00900613
-0.364128 0.025 -0.065057
-0.389729 0.025 -0.0383333
-0.355368 0.025 -0.0970747
-0.366875 0.025 -0.0759207
-0.388537 0.025 -0.0535986
-0.413376 0.025 -0.0385124
-0.366229 0.025 -0.11284
-0.392796 0.025 -0.0855693
-0.406292 0.025 -0.0757076
-0.381998 0.025 -0.112448
-0.375607 0.025 -0.0539862
-0.400749 0.025 -0.046417
-0.375938 0.025 -0.0868412
-0.388307 0.025 -0.0757271
-0.358942 0.025 -0.10549
-0.34103 0.025 -0.110773
-0.355632 0.025 -0.114505
-0.347713 0.025 -0.106264
-0.356938 0.025 -0.107109
-0.338748 0.025 -0.0925942
-0.361107 0.025 -0.0817718
-0.350834 0.025 -0.0578977
-0.366407 0.025 -0.0527814
-0.349175 0.025 -0.110927
-0.34926 0.025 -0.0908864
-0.34933 0.025 -0.0848464
-0.358609 0.025 -0.0901937
-0.37472 0.025 -0.106611
-0.384399 0.025 -0.11087
-0.381002 0.025 -0.0778865
-0.37049 0.025 -0.10867
-0.108448 0.025 0.16064
-0.120318 0.025 0.195532
-0.0425257 0.025 0.237091
-0.0803556 0.025 0.120759
-0.112016 0.025 0.172247
-0.114222 0.025 0.183768
-0.0875545 0.025 0.188322
-0.0962484 0.025 0.217381
-0.0635318 0.025 0.220454
-0.0703175 0.025 0.231234
-0.10346 0.025 0.150598
-0.109177 0.025 0.17884
-0.0574461 0.025 0.209725
-0.0914312 0.025 0.133863
-0.0958561 0.025 0.153916
-0.0700562 0.025 0.170947
-0.0912354 0.025 0.203668
-0.1067 0.025 0.165892
-0.0792647 0.025 0.179193
-0.0842419 0.025 0.198281
-0.0413181 0.025 0.207936
-0.0645802 0.025 0.0892125
-0.0429801 0.025 0.217412
-0.0432574 0.025 0.227197
-0.0485877 0.025 0.183362
-0.0514213 0.025 0.205419
-0.0585876 0.025 0.137667
-0.0610022 0.025 0.150687
-0.0647751 0.025 0.191775
-0.0873392 0.025 0.12828
-0.0894669 0.025 0.17151
-0.0998994 0.025 0.15024
-0.0510005 0.025 0.191301
-0.0662721 0.025 0.203825
-0.0747351 0.025 0.165683
-0.0736288 0.025 0.178446
-0.0714022 0.025 0.104256
-0.0754869 0.025 0.112161
-0.0906963 0.025 0.132359
-0.0646108 0.025 0.161919
-0.166268 0.025 -0.127166
-0.169433 0.025 -0.165721
0.00361235 0.025 -0.266779
-0.0370304 0.025 -0.196619
-0.168717 0.025 -0.141167
-0.167729 0.025 -0.152849
-0.117439 0.025 -0.173513
-0.112325 0.025 -0.196608
-0.0504512 0.025 -0.225097
-0.0546439 0.025 -0.230295
-0.129553 0.025 -0.15223
-0.119267 0.025 -0.181431
-0.00912184 0.025 -0.247055
-0.080215 0.025 -0.17858
-0.0751326 0.025 -0.191731
-0.0226694 0.025 -0.223668
-0.112917 0.025 -0.186547
-0.123002 0.025 -0.168488
-0.0676052 0.025 -0.20069
-0.0644815 0.025 -0.212844
-0.00845215 0.025 -0.237228
-0.073283 0.025 -0.165525
-0.0064646 0.025 -0.246352
0.00191754 0.025 -0.259133
-0.0330653 0.025 -0.216193
-0.0156387 0.025 -0.23836
-0.0560538 0.025 -0.189793
-0.0456998 0.025 -0.20153
-0.0637439 0.025 -0.202267
-0.106942 0.025 -0.15353
-0.120831 0.025 -0.159311
-0.138102 0.025 -0.136189
-0.0254081 0.025 -0.226086
-0.0627479 0.025 -0.209684
-0.0878248 0.025 -0.176364
-0.0751189 0.025 -0.193228
-0.0650204 0.025 -0.175857
-0.047472 0.025 -0.189045
-0.0966706 0.025 -0.165733
-0.0322569 0.025 -0.215259
-0.32753 0.025 -0.475583
-0.348951 0.025 -0.391689
-0.358965 0.025 -0.409491
-0.321793 0.025 -0.453719
-0.338561 0.025 -0.439973
-0.344538 0.025 -0.447426
-0.324391 0.025 -0.468633
-0.352957 0.025 -0.401688
-0.337349 0.025 -0.42318
-0.339163 0.025 -0.433489
-0.325841 0.025 -0.436651
-0.325185 0.025 -0.460372
-0.323627 0.025 -0.445136
-0.335868 0.025 -0.417748
-0.325538 0.025 -0.456035
-0.326258 0.025 -0.461412
-0.325433 0.025 -0.469873
-0.339072 0.025 -0.421522
-0.349216 0.025 -0.381643
-0.326426 0.025 -0.443446
-0.328044 0.025 -0.428454
-0.338783 0.025 -0.426852
-0.325812 0.025 -0.449844
-0.338648 0.025 -0.407087
-0.378782 0.025 0.121189
-0.393358 0.025 0.184252
-0.378332 0.025 0.236064
-0.310578 0.025 0.153873
-0.385724 0.025 0.15736
-0.38897 0.025 0.176399
-0.387196 0.025 0.178673
-0.392298 0.025 0.220586
-0.389494 0.025 0.21707
-0.38729 0.025 0.237856
-0.352114 0.025 0.143569
-0.360676 0.025 0.193411
-0.350724 0.025 0.226555
-0.331835 0.025 0.152453
-0.333083 0.025 0.183284
-0.328139 0.025 0.199158
-0.387926 0.025 0.203761
-0.35642 0.025 0.174958
-0.356688 0.025 0.184406
-0.357674 0.025 0.219515
-0.316866 0.025 0.102609
-0.310843 0.025 0.121254
-0.312106 0.025 0.139284
-0.346136 0.025 0.107473
-0.366098 0.025 0.116887
-0.336328 0.025 0.132496
-0.320595 0.025 -0.345219
-0.29233 0.025 -0.369238
-0.289396 0.025 -0.486693
-0.287478 0.025 -0.47169
-0.308867 0.025 -0.350358
-0.300737 0.025 -0.363122
-0.310043 0.025 -0.384966
-0.292382 0.025 -0.405122
-0.298244 0.025 -0.440297
-0.291404 0.025 -0.444274
-0.309054 0.025 -0.390293
-0.293027 0.025 -0.399879
-0.284014 0.025 -0.492687
-0.295849 0.025 -0.44129
-0.29141 0.025 -0.434029
-0.283374 0.025 -0.487686
-0.300119 0.025 -0.398262
-0.30022 0.025 -0.397535
-0.296663 0.025 -0.438373
-0.289035 0.025 -0.444649
-0.305748 0.025 -0.44163
-0.300576 0.025 -0.456824
-0.295379 0.025 -0.471564
-0.295337 0.025 -0.46016
-0.29032 0.025 -0.471619
-0.311063 0.025 -0.415752
-0.321756 0.025 -0.375196
-0.290187 0.025 -0.474251
-0.304706 0.025 -0.423375
-0.302724 0.025 -0.427493
-0.400691 0.025 0.0938189
-0.280121 0.025 0.190658
-0.30479 0.025 0.131919
-0.372326 0.025 0.137101
-0.332136 0.025 0.169381
-0.373933 0.025 0.123636
-0.2934 0.025 0.177291
-0.341965 0.025 0.136336
-0.301623 0.025 0.157711
-0.339578 0.025 0.155964
-0.306828 0.025 0.081727
-0.285015 0.025 0.156127
-0.293107 0.025 0.11353
-0.304345 0.025 0.104537
-0.30716 0.025 0.118592
-0.296302 0.025 0.13634
-0.320265 0.025 -0.334303
-0.321364 0.025 -0.383536
-0.304694 0.025 -0.202408
-0.321386 0.025 -0.351269
-0.32257 0.025 -0.371594
-0.308794 0.025 -0.348238
-0.308304 0.025 -0.38307
-0.302233 0.025 -0.363294
-0.298626 0.025 -0.378305
-0.309591 0.025 -0.29153
-0.315111 0.025 -0.321695
-0.290439 0.025 -0.319782
-0.307392 0.025 -0.242083
-0.309554 0.025 -0.261319
-0.294561 0.025 -0.264172
-0.308201 0.025 -0.36829
-0.3118 0.025 -0.305508
-0.299826 0.025 -0.301253
-0.301084 0.025 -0.322889
-0.31843 0.025 -0.169818
[...]
POINT_DATA 7842
SCALARS Norm_u float 1
LOOKUP_TABLE default
0.56954 0.563701 0.603074 0.578631 0.576685 0.582329 0.594566 0.593507 0.607691 0.593966 0.520042 0.552698 0.580141 0.580864 0.594904 0.630859 0.697631 0.584378 0.589523 0.606029 0.607124 0.619017 0.619109 0.622112 0.624679 0.650732 0.664383 0.658921 0.67299 0.603991 0.623612 0.642332 0.637823 0.666516 0.642116 0.654496 0.631578 0.604269 0.629303 0.680582 0.69229 0.647111 0.664369 0.854855 0.881632 0.817852 0.896151 0.863344 0.872351 0.839153 0.865365 0.826566 0.844105 0.872249 0.891222 0.840287 0.886238 0.896062 0.866387 0.852361 0.883058 0.856348 0.868251 0.770395 0.870169 0.788699 0.803367 0.798812 0.826311 0.840041 0.84794 0.792994 0.86733 0.82708 0.860124 0.817937 0.814536 0.831931 0.843961 0.879936 0.888044 0.876556 0.857249 0.926663 0.930366 0.948656 0.937378 0.938612 0.939252 0.936689 0.946583 0.942786 0.942711 0.901245 0.909344 0.920743 0.919405 0.938397 0.929862 0.935399 0.939653 0.945293 0.926921 0.912694 0.93097 0.736983 0.772547 0.752772 0.750129 0.761933 0.747536 0.768632 0.754971 0.762041 0.761671 0.786641 0.776376 0.790724 0.801743 0.798069 0.759519 0.773488 0.772846 0.782847 0.74385 0.747319 0.750836 0.75501 0.766903 0.763859 0.774485 0.741349 0.76727 0.736746 0.751227 0.763469 0.748343 0.754419 0.761404 0.776535 0.78667 0.576353 0.58712 0.591338 0.597456 0.606362 0.605612 0.555155 0.530124 0.57315 0.713556 0.75756 0.729969 0.73285 0.746413 0.736512 0.756614 0.755803 0.761609 0.722249 0.751705 0.766599 0.730571 0.742508 0.752406 0.748661 0.736566 0.742639 0.756181 0.706892 0.726614 0.754331 0.716797 0.731485 0.73274 0.707768 0.724692 0.706424 0.740703 0.743896 0.720564 0.734407 0.714653 0.724465 0.720036 0.742268 0.0464171 0.0305551 0.0558931 0.111185 0.0393479 0.0322729 0.0499736 0.0369337 0.0478671 0.0453797 0.0659773 0.0595622 0.0732034 0.0884084 0.0864389 0.0916341 0.0420145 0.0622622 0.0712083 0.0653491 0.0480321 0.0949635 0.049524 0.0496344 0.0572423 0.0641496 0.0717941 0.0779499 0.0509512 0.0725788 0.0500749 0.0561405 0.0623577 0.0491159 0.0597243 0.0632172 0.102517 0.105861 0.0796683 0.0843002 0.759781 0.776148 0.90587 0.801319 0.76186 0.769289 0.805611 0.81875 0.86257 0.86199 0.769536 0.785009 0.874284 0.788249 0.7934 0.839433 0.813044 0.777478 0.821771 0.829327 0.888786 0.79734 0.893398 0.902433 0.858199 0.871543 0.826031 0.829416 0.848473 0.784724 0.799789 0.770389 0.863306 0.850271 0.814515 0.823152 0.795462 0.800765 0.785125 0.836224 0.924463 0.882559 0.908108 0.915226 0.908705 0.922385 0.924663 0.893603 0.899898 0.914042 0.89296 0.913576 0.903869 0.890064 0.899557 0.908427 0.916777 0.889651 0.872198 0.892633 0.8819 0.897026 0.902156 0.879005 0.653339 0.682573 0.540787 0.636779 0.661585 0.669891 0.611173 0.63766 0.573078 0.590398 0.645741 0.679953 0.582789 0.645417 0.664689 0.614786 0.623609 0.662432 0.611814 0.632546 0.600785 0.617727 0.629236 0.611396 0.624782 0.629123 0.797772 0.800181 0.823485 0.879811 0.798596 0.80039 0.804424 0.808028 0.816887 0.815796 0.820134 0.825279 0.844361 0.853067 0.851823 0.863136 0.80691 0.8236 0.832543 0.83486 0.824754 0.824064 0.824895 0.845995 0.86448 0.818953 0.806247 0.845479 0.815754 0.836464 0.443113 0.340352 0.474743 0.406325 0.372071 0.449307 0.385315 0.459851 0.430112 0.416044 0.48758 0.375434 0.426428 0.477888 0.476232 0.425724 0.751095 0.738271 0.695396 0.746101 0.743724 0.763778 0.759185 0.78238 0.779822 0.734233 0.724616 0.766533 0.715194 0.710325 0.731605 0.762366 0.729026 0.747477 0.745713 0.709902 0.763876 0.773633 0.733698 0.740178 0.777584 0.725148 0.764872 0.74297 0.765481 0.7788 0.750944 0.755211 0.705037 0.702948 0.723047 0.738284 0.528411 0.519339 0.591878 0.568021 0.529022 0.56699 0.55204 0.559293 0.540654 0.586047 0.30964 0.291144 0.17255 0.305057 0.298994 0.253369 0.248041 0.209765 0.208509 0.311222 0.30268 0.223556 0.321942 0.319082 0.27949 0.251034 0.30881 0.260123 0.261331 0.192283 0.18815 0.182118 0.242386 0.292092 0.242383 0.279504 0.235068 0.228315 0.280744 0.0719411 0.0549478 0.0835802 0.143751 0.0691644 0.0617502 0.0761998 0.0544639 0.0772433 0.0640081 0.0969592 0.0841634 0.100334 0.118849 0.113765 0.120391 0.0656102 0.0906061 0.0985663 0.0872344 0.714342 0.694782 0.707017 0.701459 0.719195 0.70821 0.729897 0.722706 0.706228 0.694739 0.701615 0.694943 0.713437 0.700557 0.717709 0.709143 0.735257 0.723601 0.7305 0.719422 0.712158 0.715254 0.706533 0.725398 0.500322 0.564277 0.541204 0.525491 0.546617 0.560966 0.460204 0.477508 0.490028 0.489447 0.524776 0.509831 0.320005 0.427564 0.425613 0.334451 0.366932 0.374033 0.327669 0.425346 0.374257 0.380115 0.0730227 0.0450473 0.0785906 0.0652155 0.0558904 0.0750522 0.0573042 0.0769082 0.0684852 0.0669371 0.0383342 0.0667128 0.0403585 0.0398341 0.0496235 0.0514813 0.059423 0.0609204 0.0511565 0.07214 0.0753236 0.0649847 0.0591537 0.0169345 0.109867 0.0424891 0.0308092 0.0692582 0.0394468 0.0854709 0.0704244 0.0687133 0.0375989 0.0887099 0.0756283 0.0598141 0.0799476 0.0544324 0.0522059 0.0765265 0.0589218 0.109987 0.0791096 0.0827657 0.0649518 0.0935173 0.0932311 0.0865983 0.0811838 0.0722622 0.0743967 0.0621655 0.0889188 0.0655288 0.0732501 0.103176 0.107148 0.108855 0.0815535 0.0702469 0.0798527 0.0573032 0.086861 0.0829237 0.066086 0.510075 0.394814 0.452404 0.389047 0.474626 0.349086 0.436206 0.374022 0.414699 0.673698 0.698819 0.745073 0.77282 0.684643 0.694193 0.695141 0.707262 0.725107 0.72268 0.709556 0.715515 0.756365 0.745236 0.740182 0.765614 0.70658 0.718954 0.730253 0.732452 0.74894 0.754944 0.765296 0.729513 0.699868 0.735814 0.676075 0.694072 0.689274 0.689204 0.6838 0.683039 0.682764 0.691724 0.690967 0.689115 0.682059 0.699146 0.693896 0.691485 0.686417 0.690548 0.701809 0.694799 0.699994 0.697083 0.676259 0.676582 0.687614 0.684323 0.486994 0.488298 0.496044 0.500075 0.487685 0.435516 0.439897 0.208667 0.298148 0.254253 0.246576 0.283689 0.291359 0.796059 0.836022 0.777556 0.807105 0.824395 0.790671 0.819766 0.782318 0.798699 0.797599 0.828315 0.773687 0.790741 0.808827 0.775265 0.804725 0.811838 0.785281 0.803407 0.763044 0.772286 0.763515 0.779418 0.768649 0.774019 0.7768 0.770636 0.774908 0.776325 0.778248 0.787565 0.762091 0.755214 0.786231 0.768614 0.770724 0.109653 0.118454 0.113102 0.118853 0.140157 0.141996 0.150118 0.179663 0.17489 0.182611 0.113977 0.141779 0.14993 0.150091 0.101334 0.101006 0.109 0.223933 0.217411 0.2225 0.257604 0.289628 0.253918 0.224598 0.22854 0.228536 0.0599783 0.0653748 0.0863374 0.0874208 0.0641478 0.0890993 0.0910434 0.0796685 0.0554039 0.0817757 0.0787225 0.0850232 0.183101 0.199772 0.27721 0.189895 0.193231 0.174206 0.182033 0.15921 0.163359 0.226143 0.233498 0.191116 0.256186 0.25931 0.235602 0.1784 0.231341 0.205494 0.212774 0.00154078 0.00951547 0.009604 0.00153015 0.000430064 0.00549056 0.00170025 0.00255859 0.00432299 0.00381457 0.00355731 0.00539306 0.00724357 0.00185985 0.00171118 0.00455228 0.00129545 0.00353833 0.000783565 0.00121712 0.0180792 0.0183035 0.0136078 0.0104626 0.00389311 0.0079389 0.0671555 0.0951217 0.0965006 0.0816201 0.0818241 0.133421 0.139775 0.110752 0.170084 0.169304 0.154957 0.0946681 0.13697 0.12651 0.125259 0.0747207 0.074683 0.070309 0.10199 0.0918224 0.142153 0.130809 0.0846063 0.154786 0.0890042 0.124757 0.101203 0.0858683 0.117429 0.111171 0.161648 0.139917 0.922682 0.910999 0.920276 0.921439 0.917545 0.924559 0.914702 0.923757 0.917794 0.920957 0.780621 0.791657 0.793345 0.790259 0.786825 0.794581 0.808869 0.792332 0.80326 0.801147 0.794482 0.808824 0.801891 0.80849 0.324361 0.28116 0.239631 0.316978 0.301261 0.274402 0.917894 0.892146 0.913271 0.912203 0.920519 0.92027 0.922459 0.902788 0.911902 0.922684 0.90479 0.909664 0.914324 0.902746 0.915299 0.901322 0.90895 0.895805 0.881926 0.909008 0.903064 0.893682 0.902581 0.916276 0.135755 0.146581 0.08903 0.0983058 0.137822 0.124323 0.13064 0.109967 0.150643 0.10282 0.137525 0.0588692 0.0626233 0.0703854 0.0771247 0.0570009 0.0631106 0.0564689 0.0723532 0.061952 0.0511229 0.0629537 0.0668597 0.580072 0.685575 0.720432 0.710718 0.731211 0.636661 0.653181 0.681169 0.605052 0.613995 0.631203 0.704808 0.647522 0.653001 0.673186 0.575606 0.666509 0.687359 0.616688 0.629603 0.685915 0.609994 0.671547 0.639235 0.671431 0.695684 0.649429 0.662567 0.575236 0.576402 0.610744 0.632881 0.413552 0.402789 0.409036 0.436331 0.453958 0.471501 0.482881 0.446009 0.377706 0.398904 0.408473 0.409804 0.43489 0.432147 0.449101 0.42852 0.467389 0.50876 0.529808 0.479759 0.55577 0.451198 0.537457 0.482934 0.511562 0.421369 0.475084 0.451581 0.651941 0.692346 0.667452 0.683987 0.660838 0.668361 0.681763 0.694252 0.664901 0.691878 0.692094 0.678369 0.673846 0.688695 0.675224 0.679973 0.655233 0.653437 0.652408 0.675954 0.688188 0.658137 0.662747 0.670559 0.659545 0.680256 0.714602 0.704069 0.700516 0.700447 0.682747 0.695109 0.674755 0.693016 0.688998 0.680749 0.946855 0.916747 0.937106 0.935804 0.942602 0.947253 0.947854 0.926916 0.935503 0.942593 0.931471 0.93674 0.942297 0.933153 0.943713 0.933671 0.938005 0.921291 0.907597 0.93784 0.926015 0.923895 0.929147 0.943706 0.315592 0.320431 0.161972 0.333891 0.335504 0.264615 0.275111 0.213409 0.222291 0.278206 0.161304 0.233351 0.163466 0.19323 0.217246 0.161005 0.20708 0.161726 0.183784 0.187998 0.69189 0.679769 0.689337 0.685033 0.69301 0.684291 0.695439 0.689295 0.682034 0.678622 0.67887 0.677391 0.689036 0.681104 0.689249 0.683707 0.705151 0.69749 0.699098 0.688872 0.686066 0.6896 0.679333 0.694184 0.0637803 0.0597111 0.0938603 0.104876 0.0715085 0.0645161 0.0674935 0.0966603 0.0704921 0.0701306 0.0697498 0.10557 0.79464 0.806455 0.830107 0.798774 0.804495 0.806319 0.817872 0.818598 0.825756 0.827777 0.842893 0.849321 0.861294 0.867952 0.866496 0.811883 0.836845 0.839 0.847873 0.837777 0.844285 0.834191 0.811317 0.82858 0.844917 0.854955 0.473024 0.508366 0.414999 0.365986 0.396199 0.368896 0.413807 0.398627 0.413325 0.397058 0.399065 0.381887 0.401451 0.380372 0.334442 0.446867 0.364106 0.478121 0.44129 0.411138 0.0042008 0.000399649 0.0233787 0.026503 0.00886231 0.010087 0.0275295 0.0300998 0.00128386 0.0138293 0.0152172 0.000249619 0.022983 0.0266113 0.0124657 0.0133438 0.00835695 0.00665253 0.00273928 0.0177257 0.0258794 0.0173825 0.548179 0.546541 0.549005 0.576582 0.606115 0.581331 0.563283 0.57975 0.593532 0.615452 0.606226 0.642918 0.587332 0.614176 0.63581 0.609756 0.628171 0.587127 0.61456 0.514873 0.492858 0.500448 0.524927 0.521545 0.515212 0.536688 0.508086 0.520988 0.533689 0.517874 0.511607 0.547864 0.58299 0.566703 0.235492 0.237623 0.290015 0.261702 0.287649 0.233917 0.260046 0.234627 0.259732 0.210145 0.218869 0.225797 0.218843 0.227372 0.226595 0.00891791 0.0096368 0.00806442 0.0105615 0.0285499 0.00917862 0.643501 0.666173 0.642827 0.677341 0.686853 0.670616 0.656724 0.646149 0.661124 0.630644 0.649529 0.643613 0.620861 0.624862 0.659816 0.660028 0.172751 0.146917 0.125955 0.168285 0.127373 0.165189 0.14524 0.145392 0.879149 0.908988 0.89528 0.924204 0.899808 0.927568 0.91688 0.913217 0.869183 0.87216 0.875386 0.883239 0.891888 0.892022 0.897759 0.888798 0.907284 0.0624768 0.014023 0.0113874 7.72341e-06 0.040142 0.0233906 0.0470716 0.0123923 0.0250119 0.0115137 0.0321601 0.0128005 0.0125039 0.000670249 0.0174723 0.0162971 0.0264056 0.00838828 0.0129418 0.0130283 0.0598043 0.0359449 0.0390974 0.021093 0.0534531 0.0118199 0.0438453 0.0236279 0.0647682 0.0417745 0.0664463 0.0540495 0.0301827 0.043045 0.0543893 0.0355157 0.0202589 0.00582253 0.0223349 0.00287391 0.584163 0.59222 0.583714 0.587276 0.586026 0.624589 0.620466 0.605917 0.578335 0.577027 0.580361 0.606039 0.748332 0.736279 0.763368 0.744689 0.760292 0.756339 0.76441 0.752429 0.748695 0.760918 0.705374 0.723745 0.736687 0.715792 0.741852 0.727091 0.739481 0.707052 0.708058 0.731407 0.730479 0.720434 0.735747 0.752149 0.927377 0.929938 0.92713 0.06505 0.0353498 0.0518414 0.00403542 0.053893 0.0432431 0.0643332 0.042163 0.0597063 0.0476602 0.0380239 0.0202861 0.0306747 0.0144289 0.00715765 0.012049 0.053801 0.0288199 0.034758 0.0261384 0.0143674 0.0132628 0.000422928 0.00494869 0.00564745 0.0105444 0.00904658 0.00442508 0.00476661 0.0124357 0.00889688 0.00309098 0.00285307 0.00582108 0.00429514 0.000319216 0.00169379 0.00585273 0.00602578 0.890449 0.901051 0.910364 0.891792 0.897669 0.901635 0.909074 0.883853 0.895713 0.899926 0.887399 0.905579 0.905502 0.894467 0.899046 0.881794 0.880708 0.881806 0.891611 0.899579 0.891844 0.884409 0.887928 0.894302 0.884391 0.936785 0.966266 0.893515 0.952151 0.946676 0.957026 0.925587 0.939467 0.908091 0.915217 0.942107 0.963175 0.912871 0.947889 0.95847 0.932416 0.932712 0.951717 0.93064 0.936749 0.885938 0.88824 0.890896 0.90244 0.92175 0.907096 0.439252 0.448678 0.0406642 0.0795069 0.11972 0.0795259 0.12046 0.11958 0.114729 0.144452 0.114144 0.765959 0.777676 0.788868 0.769326 0.773041 0.771952 0.781393 0.782071 0.785124 0.799767 0.808641 0.814306 0.841309 0.842465 0.8444 0.777213 0.805594 0.807709 0.811467 0.777962 0.781693 0.785908 0.8103 0.844926 0.776568 0.768562 0.813123 0.778627 0.810639 0.831343 0.79306 0.836017 0.803925 0.832878 0.837794 0.804157 0.0264896 0.00447755 0.0150869 0.00481791 0.0410326 0.0189407 0.05435 0.0428184 0.0322754 0.0134571 0.0402149 0.0335807 0.0312493 0.0230533 0.0466621 0.0378105 0.0595025 0.0409196 0.0424334 0.0355634 0.0552481 0.0484764 0.0505167 0.0403462 0.92187 0.885993 0.914884 0.905433 0.910273 0.892368 0.898314 0.889861 0.902554 0.900811 0.890194 0.905205 0.944831 0.934738 0.925038 0.169862 0.161885 0.169144 0.167991 0.153779 0.161528 0.159646 0.16515 0.193047 0.189163 0.197329 0.215091 0.213698 0.218243 0.160566 0.192663 0.185636 0.191257 0.180489 0.189031 0.198139 0.178854 0.170296 0.206617 0.202804 0.712736 0.730312 0.705483 0.708794 0.715982 0.735174 0.714596 0.708752 0.802259 0.810394 0.845517 0.844259 0.809462 0.826492 0.866364 0.870973 0.809322 0.82013 0.852142 0.85783 0.838097 0.798089 0.838825 0.40455 0.238496 0.200054 0.331569 0.252352 0.374015 0.333241 0.291824 0.239232 0.332968 0.248985 0.360551 0.379118 0.395483 0.292955 0.216891 0.309425 0.110927 0.137029 0.138751 0.915698 0.925929 0.896659 0.903361 0.917708 0.920283 0.886967 0.901509 0.902503 0.891755 0.92023 0.918831 0.899972 0.904446 0.879514 0.887468 0.891043 0.91454 0.883532 0.895591 0.897432 0.899014 0.916924 0.881709 0.875713 0.901879 0.884718 0.897259 0.296649 0.353002 0.272914 0.275872 0.256588 0.262982 0.313345 0.313741 0.266381 0.240077 0.24907 0.330752 0.471258 0.471446 0.282305 0.466494 0.468433 0.409478 0.407501 0.337895 0.344454 0.40463 0.405633 0.285255 0.339983 0.345533 0.288202 0.405212 0.402176 0.345753 0.344995 0.294255 0.3074 0.363957 0.420514 0.35732 0.357434 0.297634 0.448652 0.483389 0.412336 0.775716 0.756158 0.766373 0.77366 0.772695 0.765448 0.760601 0.763853 0.770026 0.755634 0.767287 0.749694 0.755872 0.759434 0.764474 0.913639 0.922026 0.901794 0.90382 0.82871 0.866356 0.877935 0.891349 0.851232 0.831956 0.852315 0.822849 0.776385 0.776999 0.76884 0.774491 0.762983 0.770883 0.765245 0.766431 0.765567 0.758153 0.762197 0.773074 0.151289 0.157333 0.196331 0.755466 0.766333 0.777781 0.777128 0.766732 0.763427 0.770986 0.760964 0.764755 0.766303 0.769694 0.732319 0.725402 0.762974 0.757576 0.726395 0.721178 0.754797 0.749621 0.730878 0.725035 0.755664 0.753592 0.755101 0.747653 0.73103 0.729578 0.756487 0.750927 0.753406 0.747776 0.745401 0.739729 0.629097 0.64126 0.648092 0.656335 0.621207 0.634658 0.637314 0.63809 0.773075 0.777471 0.774761 0.777511 0.775888 0.771617 0.777328 0.768591 0.768859 0.769171 0.772384 0.765358 0.544244 0.475076 0.566775 0.532344 0.514343 0.014199 0.0132363 0.0129242 0.0117985 0.00841066 0.0100224 0.354381 0.129456 0.0909861 0.127474 0.0425638 0.038838 0.0824705 0.176594 0.253769 0.250859 0.211323 0.212676 0.170484 0.169136 0.250784 0.209603 0.208211 0.189415 0.185279 0.182212 0.184338 0.179246 0.225719 0.267087 0.179108 0.221271 0.218851 0.197491 0.194452 0.188459 0.239888 0.941456 0.95564 0.955475 0.96211 0.949548 0.929118 0.931033 0.933865 0.931949 0.914574 0.916556 0.944349 0.0496305 0.0447238 0.0897318 0.0757879 0.0486939 0.0439156 0.0641296 0.0576226 0.0761181 0.0726252 0.0599493 0.0527697 0.0847004 0.0675255 0.0631243 0.0800524 0.0612151 0.057147 0.0734968 0.0676831 0.0974152 0.0946993 0.0920497 0.0904106 0.0829065 0.0734553 0.0572973 0.0871873 0.0722042 0.0709635 0.078922 0.078771 0.0759415 0.0606684 0.0486419 0.0869455 0.0903928 0.064307 0.0861895 0.0670847 0.000750342 0.0209625 0.00906167 0.00957985 0.00765936 0.0137016 0.000919154 0.0148185 0.000335535 0.0108515 0.0010211 0.0208827 0.0123563 0.00764829 0.0107019 0.00614244 0.00801759 0.0110415 0.000809718 0.015531 0.0363934 0.0171457 0.00414135 0.0180648 0.0119476 0.028194 0.0146165 0.00281511 0.0113542 0.0140679 0.0525212 0.0359196 0.0241868 0.0350873 0.0145276 0.0458724 0.0397833 0.0199728 0.0256646 0.0306941 0.836826 0.852247 0.797997 0.804454 0.853358 0.86596 0.770045 0.830239 0.83397 0.785848 0.844382 0.859844 0.815306 0.819947 0.760529 0.783894 0.779502 0.828195 0.765767 0.791207 0.805073 0.821202 0.847303 0.781397 0.759253 0.827589 0.78061 0.800179 0.722759 0.717483 0.738521 0.736608 0.721201 0.753579 0.752306 0.731997 0.721805 0.748939 0.754162 0.734491 0.246124 0.210887 0.253177 0.248493 0.504575 0.493452 0.482409 0.484395 0.460299 0.463908 0.450855 0.472307 0.447439 0.441128 0.454629 0.00907878 0.0218311 0.0142571 0.016753 0.00821026 0.00951897 0.009686 0.00340181 0.0144313 0.00703977 0.0667577 0.0435297 0.0277382 0.0584048 0.0265773 0.0566351 0.0405573 0.0551099 0.048308 0.0411671 0.0343418 0.0508085 0.0334423 0.0248598 0.948067 0.943722 0.96228 0.952187 0.948077 0.956214 0.950826 0.953648 0.9475 0.958041 0.928093 0.945069 0.936185 0.929769 0.933104 0.940081 0.934989 0.942746 0.939517 0.943136 0.0122426 0.00970519 0.0060291 0.0218933 0.0119151 0.019995 0.0110692 0.00497667 0.00524377 0.880761 0.899589 0.886733 0.894142 0.889501 0.855073 0.863334 0.851406 0.0435885 0.0408401 0.0638365 0.0879053 0.0436951 0.0396832 0.0543172 0.0473955 0.0573636 0.0550609 0.0618596 0.0573386 0.0713324 0.0744551 0.073027 0.0793554 0.050414 0.0590347 0.0666281 0.0637805 0.0615201 0.0631741 0.0605197 0.0765439 0.0832044 0.0571402 0.0476484 0.0743036 0.0571089 0.0685569 0.0935399 0.0928346 0.0880726 0.0735852 0.0560833 0.0818323 0.0734152 0.0722614 0.0835772 0.0658943 0.838717 0.832209 0.874539 0.836436 0.837322 0.852242 0.846836 0.865824 0.860946 0.854126 0.85491 0.880791 0.875163 0.875345 0.887116 0.852673 0.856415 0.868343 0.868109 0.870175 0.852025 0.87036 0.0108237 0.0216921 0.00274572 0.0209273 0.00174157 0.00864091 0.0173446 0.0125251 0.011569 0.0062097 0.0020989 0.0214215 0.0154013 0.0103686 0.0211665 0.0214618 0.000996877 0.0104733 0.00141934 0.0169857 0.0314986 0.0168913 0.021383 0.00905373 0.0260969 2.91318e-05 0.0246638 0.00990701 0.0356418 0.0170111 0.0277124 0.0124576 0.0120601 0.0229747 0.030054 0.0142871 0.00404221 0.00754351 0.00159179 0.00516436 0.00910949 0.00708096 0.00021548 0.0186363 0.00529558 0.0146853 0.00054233 0.0192705 0.00719525 0.00508568 0.0146433 0.00651907 0.00924102 0.00938063 0.00388062 0.0140453 0.0171746 0.00424233 0.00319923 0.0127356 0.00854723 0.00189131 0.0075629 0.0213199 0.00446882 0.00939565 0.00671026 0.029376 0.0300785 0.0311893 0.028599 0.0253479 0.0238733 0.0153988 0.0170484 0.0171822 0.0163413 0.00321947 0.00314335 0.0254333 0.0157405 0.0100787 0.0103878 0.0197646 0.00938361 0.0247196 0.0185902 0.0218604 0.0137333 0.0134153 0.00779382 0.0788735 0.0719564 0.0353514 0.0354174 0.0584314 0.0585072 0.0332886 0.0307806 0.0773966 0.0494654 0.0515647 0.0750909 0.0378427 0.0339782 0.054137 0.0554504 0.0642431 0.0684899 0.0735383 0.0693089 0.072171 0.0491627 0.0332042 0.0735868 0.0520291 0.0507346 0.0692407 0.0738146 0.0734221 0.0465565 0.0297839 0.0662153 0.0605639 0.0484502 0.069358 0.0480471 0.0448099 0.0494821 0.062687 0.0657471 0.0493898 0.0391836 0.0427595 0.0491048 0.0375325 0.0535289 0.0363227 0.0411286 0.0113784 0.00436425 0.0128764 0.00895626 0.00834724 0.513412 0.552494 0.565518 0.52944