# vtk DataFile Version 5.1
vtk output
ASCII

DATASET UNSTRUCTURED_GRID
POINTS 7842 float
-0.217593 0.527697 -0.0815083
-0.116428 0.583461 0.0465256
-0.0327717 0.618052 -0.123782
-0.174526 0.561369 -0.042031
-0.140563 0.580459 0.00026011
-0.150813 0.564543 -0.101154
-0.0824111 0.614112 -0.0174902
-0.0894497 0.594494 -0.115973
-0.05409 0.625679 -0.0742315
-0.112055 0.596601 -0.0608198
-0.0296134 0.539974 -0.0852771
-0.0244171 0.57219 -0.10208
-0.0229698 0.598791 -0.11412
-0.663457 0.381601 -0.00717313
-0.718338 0.387105 -0.017283
-0.723144 0.472238 -0.00701518
-0.709851 0.423497 -0.118163
-0.691256 0.382076 -0.00821787
-0.707279 0.385258 -0.0115249
-0.682015 0.416515 -0.0135661
-0.720626 0.417175 -0.0117485
-0.703438 0.449631 -0.00764047
-0.721871 0.445459 -0.00840976
-0.675461 0.390679 -0.0480662
-0.701654 0.39385 -0.0464945
-0.719978 0.457384 -0.0438056
-0.689203 0.409443 -0.0861359
-0.699612 0.406933 -0.0803481
-0.713994 0.441898 -0.0804798
-0.704153 0.416952 -0.00883139
-0.692203 0.392737 -0.0466683
-0.689742 0.425511 -0.0517084
-0.710777 0.426756 -0.0453833
-0.650583 0.410096 -0.0928919
-0.700133 0.464399 -0.0277618
-0.67403 0.438463 -0.0591582
-0.653157 0.394075 -0.0604907
-0.655312 0.386293 -0.0323
-0.675834 0.429033 -0.0344871
-0.671742 0.417297 -0.101543
-0.689089 0.424164 -0.110414
-0.673754 0.399998 -0.072288
-0.695359 0.442724 -0.0678974
-0.350292 0.127253 -0.323337
-0.367436 0.0957442 -0.343434
-0.421235 0.242817 -0.272928
-0.310696 0.0511205 -0.368846
-0.357277 0.116364 -0.32944
-0.361481 0.103904 -0.336442
-0.369898 0.161859 -0.303094
-0.378099 0.145142 -0.32734
-0.396934 0.197599 -0.28532
-0.398283 0.192628 -0.302482
-0.337022 0.110451 -0.344524
-0.346409 0.0917336 -0.359575
-0.36718 0.191708 -0.303545
-0.321572 0.0818157 -0.360971
-0.324198 0.0767985 -0.369309
-0.320558 0.133083 -0.341387
-0.374104 0.153221 -0.315238
-0.340941 0.0991896 -0.353623
-0.345438 0.147657 -0.325959
-0.348345 0.142393 -0.337078
-0.426107 0.236027 -0.221751
-0.312695 0.0736823 -0.347396
-0.426243 0.24359 -0.240464
-0.421606 0.240343 -0.257077
-0.384483 0.206771 -0.258733
-0.369915 0.193841 -0.289208
-0.329792 0.140676 -0.311769
-0.323924 0.14118 -0.322854
-0.400798 0.207731 -0.249101
-0.321114 0.0967552 -0.342167
-0.367438 0.16143 -0.291274
-0.334652 0.117362 -0.33251
-0.370566 0.194656 -0.280934
-0.395738 0.197784 -0.272725
-0.351788 0.15728 -0.29924
-0.34603 0.153751 -0.312756
-0.311816 0.0637537 -0.356732
-0.311885 0.055885 -0.363083
-0.321504 0.0897393 -0.351806
-0.322661 0.136852 -0.332471
-0.060117 0.12492 -0.167122
-0.039881 0.155848 -0.168101
-0.0416235 0.0645083 -0.151567
-0.0483697 0.126299 -0.168951
-0.0432204 0.138992 -0.169072
-0.0495556 0.101697 -0.166631
-0.0421662 0.136087 -0.170846
-0.0448605 0.0851958 -0.16442
-0.0435215 0.104509 -0.168339
-0.0445714 0.114933 -0.170309
-0.0923603 0.165669 -0.143613
-0.0802915 0.163064 -0.145234
-0.0597853 0.156272 -0.154053
-0.0654952 0.146866 -0.154051
-0.0487418 0.103176 -0.159989
-0.0528864 0.134174 -0.161061
-0.0478446 0.0992612 -0.164296
-0.04689 0.0901168 -0.159979
-0.0441343 0.0728659 -0.154554
-0.056864 0.120415 -0.15872
-0.0737466 0.150761 -0.152147
-0.0540587 0.117159 -0.157782
-0.493381 0.327884 -0.201006
-0.483918 0.320781 -0.241873
-0.445097 0.303425 -0.19849
-0.492293 0.326599 -0.218917
-0.488454 0.320794 -0.23087
-0.478292 0.317768 -0.197979
-0.474035 0.31345 -0.221377
-0.460246 0.30477 -0.199787
-0.461736 0.30804 -0.207038
-0.47237 0.294582 -0.214948
-0.464936 0.290371 -0.243939
-0.431146 0.283995 -0.226211
-0.441546 0.262142 -0.241785
-0.443094 0.263932 -0.252527
-0.423044 0.263825 -0.25154
-0.475716 0.315009 -0.211106
-0.469346 0.291842 -0.229138
-0.451242 0.284618 -0.221477
-0.44877 0.286482 -0.232377
-0.457667 0.287478 -0.189994
-0.451471 0.292162 -0.193403
-0.446969 0.295971 -0.19707
-0.44755 0.270713 -0.202599
-0.438954 0.281931 -0.216118
-0.434928 0.252871 -0.213543
-0.432215 0.261864 -0.224791
-0.470543 0.300886 -0.188387
-0.450996 0.269969 -0.216347
-0.484292 0.315888 -0.188837
-0.476922 0.301703 -0.203301
-0.441081 0.273749 -0.212249
-0.466321 0.304333 -0.194732
-0.462407 0.285585 -0.202425
-0.456787 0.289184 -0.208961
-0.450172 0.27069 -0.227112
-0.427309 0.262761 -0.238354
0.100932 0.642709 -0.0137185
-0.0326006 0.630203 0.0234891
0.0396141 0.649675 0.00382728
0.0638018 0.651053 -0.048667
0.0188911 0.642758 -0.0853926
-0.00321962 0.645512 -0.0342146
0.0650468 0.608765 -0.0288073
0.0216629 0.568963 -0.0485899
0.0248091 0.611722 -0.0682978
-0.569596 0.40794 -0.169084
-0.624823 0.423493 -0.189611
-0.542541 0.318971 -0.230923
-0.587341 0.413589 -0.180766
-0.603981 0.4186 -0.187096
-0.539855 0.37372 -0.208971
-0.578366 0.397773 -0.213761
-0.507484 0.341886 -0.230932
-0.526943 0.364003 -0.233409
-0.571245 0.372607 -0.19642
-0.601621 0.389442 -0.21026
-0.499722 0.315805 -0.245453
-0.55401 0.342911 -0.21884
-0.572815 0.354925 -0.22514
-0.518013 0.314614 -0.241324
-0.554406 0.384439 -0.215013
-0.585386 0.38013 -0.203605
-0.53399 0.346393 -0.224539
-0.549556 0.359309 -0.232717
-0.524515 0.327749 -0.195636
-0.502348 0.331456 -0.20001
-0.499939 0.320919 -0.230237
-0.511952 0.332458 -0.196416
-0.513349 0.329188 -0.21306
-0.507007 0.354155 -0.204018
-0.537911 0.350691 -0.190138
-0.535539 0.383406 -0.194354
-0.557063 0.376777 -0.179483
-0.50325 0.328032 -0.21615
-0.511645 0.351971 -0.217793
-0.52217 0.355098 -0.197768
-0.522128 0.347565 -0.213365
-0.53338 0.321881 -0.209878
-0.536043 0.317176 -0.222724
-0.552263 0.350427 -0.204047
-0.516994 0.321369 -0.228205
-0.0738884 0.0797325 0.191888
-0.100779 0.0616966 0.204268
-0.0175944 0.00989391 0.280619
-0.0524172 0.132143 0.144171
-0.0836296 0.0710702 0.195657
-0.0916319 0.0628037 0.199797
-0.0565131 0.0728008 0.224503
-0.0762626 0.0612619 0.238679
-0.0367737 0.0442425 0.259078
-0.0456843 0.0460714 0.266664
-0.0701078 0.096032 0.185728
-0.077214 0.0897681 0.210521
-0.0212092 0.0599491 0.262962
-0.0600023 0.114327 0.168037
-0.0628326 0.11368 0.192954
-0.0351938 0.104468 0.212326
-0.0664762 0.0644518 0.232427
-0.0740251 0.0925382 0.199824
-0.0447946 0.088749 0.221549
-0.0499475 0.0800209 0.240191
-0.0144765 0.0329159 0.259418
-0.0367756 0.110727 0.115693
-0.0165429 0.0229506 0.266936
-0.0190147 0.0132347 0.272904
-0.0194165 0.065751 0.228345
-0.0185578 0.0555599 0.253395
-0.0274516 0.0970525 0.173173
-0.0284731 0.099395 0.188762
-0.0333295 0.0597528 0.234487
-0.0558788 0.0988364 0.161344
-0.0565784 0.0769778 0.207607
-0.067561 0.0878645 0.182982
-0.019643 0.0640679 0.237229
-0.0368305 0.0540404 0.244885
-0.0423582 0.0815286 0.203494
-0.0405562 0.0799695 0.219625
-0.0428805 0.12161 0.129898
-0.0470163 0.126101 0.13706
-0.0593722 0.106163 0.165735
-0.0316174 0.101127 0.201499
-0.34891 0.27045 -0.116592
-0.323307 0.243535 -0.148398
-0.041895 0.0217147 -0.235526
-0.195682 0.134014 -0.13047
-0.343247 0.261991 -0.127709
-0.331893 0.251866 -0.136984
-0.251148 0.206528 -0.142102
-0.222923 0.192326 -0.163327
-0.125809 0.119711 -0.18501
-0.123327 0.127782 -0.18977
-0.307401 0.225155 -0.119562
-0.276302 0.198741 -0.140848
-0.0871931 0.0664978 -0.213669
-0.245389 0.174274 -0.125655
-0.233355 0.162677 -0.134843
-0.141304 0.105344 -0.175582
-0.234724 0.196168 -0.15437
-0.289982 0.209606 -0.131175
-0.193481 0.153648 -0.155607
-0.178217 0.144801 -0.168092
-0.0737318 0.0588899 -0.207558
-0.235925 0.179112 -0.114275
-0.0671122 0.0498477 -0.215442
-0.0506392 0.0297406 -0.228501
-0.124371 0.111939 -0.176214
-0.0959835 0.0766813 -0.203819
-0.182353 0.155975 -0.141492
-0.170511 0.138695 -0.153432
-0.156882 0.147092 -0.163321
-0.276018 0.209252 -0.11647
-0.264006 0.218955 -0.128887
-0.316509 0.243853 -0.113178
-0.113241 0.0959856 -0.187928
-0.152694 0.140235 -0.170643
-0.220748 0.184407 -0.136217
-0.197736 0.163948 -0.150549
-0.229269 0.165028 -0.120376
-0.207158 0.145912 -0.126935
-0.26473 0.19377 -0.121202
-0.152266 0.118488 -0.168712
-0.324738 0.0354653 -0.414809
-0.338729 0.0927109 -0.353326
-0.360439 0.0725899 -0.366776
-0.31664 0.0382152 -0.393959
-0.332824 0.0533587 -0.381209
-0.343796 0.0558155 -0.392471
-0.321124 0.0345871 -0.4095
-0.347315 0.0804593 -0.358868
-0.328801 0.0665066 -0.372959
-0.335822 0.0622708 -0.384418
-0.317061 0.046862 -0.369875
-0.320528 0.0330922 -0.39725
-0.316968 0.0412739 -0.381874
-0.325322 0.0702275 -0.364295
-0.317697 0.0262676 -0.385402
-0.320345 0.0291685 -0.395872
-0.321464 0.0288468 -0.406968
-0.3287 0.0658675 -0.363968
-0.337548 0.102407 -0.343688
-0.318449 0.0385231 -0.372851
-0.318305 0.054758 -0.358765
-0.329906 0.0625238 -0.370898
-0.319162 0.0366168 -0.383436
-0.326741 0.0797998 -0.352689
-0.630437 0.482459 -0.0337445
-0.670123 0.543909 -0.0284548
-0.645488 0.51424 0.0955219
-0.572464 0.52513 0.00550079
-0.650204 0.513068 -0.0241593
-0.661167 0.531713 -0.0222687
-0.652299 0.501518 0.0224116
-0.677449 0.551302 0.0183026
-0.659306 0.512714 0.0653311
-0.668397 0.542905 0.059883
-0.611711 0.507179 -0.0140409
-0.642185 0.563549 -0.0169757
-0.622934 0.537102 0.0670569
-0.594425 0.521475 -0.00607192
-0.609501 0.558274 -0.00530362
-0.599247 0.54133 0.0364481
-0.663969 0.530045 0.0233791
-0.628204 0.540276 -0.0122747
-0.623475 0.516871 0.028451
-0.640113 0.558742 0.0287067
-0.557979 0.461356 0.006588
-0.560368 0.48882 0.00313592
-0.568178 0.508715 0.00346989
-0.590962 0.46073 -0.00432884
-0.61518 0.467341 -0.0126849
-0.590661 0.494651 -0.00508149
-0.313686 0.145947 -0.266446
-0.28284 0.134746 -0.281051
-0.311355 -0.0134501 -0.289726
-0.304052 -0.0172176 -0.368918
-0.304514 0.145088 -0.27173
-0.293696 0.136318 -0.277739
-0.300305 0.107592 -0.28519
-0.288282 0.0837642 -0.292745
-0.305654 0.0391506 -0.29944
-0.30111 0.0316706 -0.29914
-0.299777 0.0997487 -0.300428
-0.287447 0.0859054 -0.306881
-0.30852 -0.0186856 -0.308601
-0.300179 0.0295183 -0.337884
-0.292148 0.035722 -0.336751
-0.306192 -0.0188118 -0.334511
-0.294642 0.0923526 -0.290243
-0.293577 0.090012 -0.305232
-0.302762 0.0394981 -0.314832
-0.298671 0.0286547 -0.316536
-0.311232 0.040154 -0.308538
-0.313888 0.0199593 -0.303441
[...]
POINT_DATA 7842
SCALARS Norm_u float 1
LOOKUP_TABLE default
0.163199 0.148051 0.132118 0.155643 0.151457 0.147219 0.152808 0.138259 0.147053 0.149697 0.114686 0.120916 0.12631 0.331788 0.347455 0.361961 0.409994 0.338324 0.343084 0.343123 0.348868 0.350409 0.353588 0.359724 0.364678 0.375024 0.38683 0.385156 0.389027 0.344854 0.362973 0.367462 0.367763 0.383122 0.3646 0.370466 0.361998 0.344751 0.355297 0.394286 0.403382 0.374749 0.380157 0.753016 0.811102 0.610557 0.872284 0.772294 0.793771 0.70262 0.745634 0.656872 0.679879 0.787358 0.825013 0.675256 0.830704 0.845382 0.758416 0.724462 0.809413 0.733746 0.750911 0.566735 0.824286 0.578914 0.596799 0.619519 0.658979 0.725192 0.732121 0.613255 0.797324 0.691081 0.76859 0.649742 0.644152 0.700072 0.71536 0.843641 0.859552 0.813216 0.745597 0.827454 0.79969 0.909654 0.836268 0.82469 0.862998 0.825651 0.886692 0.863305 0.852847 0.761614 0.77184 0.789576 0.797935 0.860477 0.820793 0.861419 0.8749 0.897925 0.831906 0.787551 0.839162 0.469868 0.512398 0.497967 0.484974 0.50114 0.485427 0.510068 0.500261 0.505562 0.515726 0.545162 0.534432 0.567506 0.578347 0.572266 0.499625 0.530011 0.532291 0.541226 0.502106 0.501261 0.501511 0.524625 0.527294 0.546703 0.54998 0.489956 0.537591 0.47611 0.500234 0.530226 0.494285 0.513714 0.517669 0.54661 0.561392 0.142725 0.154654 0.153418 0.142846 0.139147 0.151262 0.132089 0.120948 0.130924 0.416063 0.456534 0.475554 0.433316 0.445764 0.449415 0.462269 0.48343 0.478561 0.44061 0.463579 0.511651 0.462645 0.469345 0.499285 0.457594 0.451987 0.47052 0.478146 0.445951 0.458824 0.494328 0.450178 0.467197 0.451228 0.434725 0.432321 0.422111 0.475781 0.465081 0.441688 0.459917 0.458662 0.471573 0.44829 0.484332 0.0473286 0.0222669 0.0869318 0.0366746 0.0374035 0.0282465 0.0477213 0.0292138 0.0550195 0.0495274 0.0487035 0.0453033 0.0749041 0.0464386 0.051182 0.0554575 0.0380348 0.0474011 0.0551168 0.0551293 0.0705702 0.0394924 0.0762318 0.0802914 0.0560921 0.0671563 0.047224 0.0502044 0.0554577 0.0456565 0.0488702 0.0465083 0.0602916 0.0543665 0.0498816 0.0534558 0.038806 0.038121 0.0457976 0.0521721 0.5459 0.578714 0.910829 0.713325 0.55329 0.566943 0.639018 0.661584 0.772588 0.763385 0.597404 0.632421 0.837103 0.662097 0.676937 0.769807 0.654124 0.617067 0.705901 0.719977 0.857898 0.665448 0.871213 0.899751 0.777675 0.824513 0.708088 0.728113 0.733363 0.624921 0.623266 0.58013 0.798086 0.741547 0.669661 0.696414 0.677974 0.701111 0.640406 0.753807 0.91602 0.815814 0.861579 0.904003 0.882324 0.893262 0.91699 0.839256 0.859902 0.87815 0.873698 0.907693 0.889872 0.846591 0.901096 0.90665 0.915104 0.850796 0.795783 0.881976 0.855042 0.861367 0.893037 0.826085 0.354547 0.385524 0.306237 0.330563 0.3647 0.374416 0.3359 0.366919 0.321107 0.340516 0.34494 0.37882 0.323318 0.34098 0.359503 0.331161 0.350421 0.361355 0.331487 0.354883 0.307234 0.316073 0.324338 0.321399 0.334836 0.330218 0.681429 0.696109 0.884427 0.927886 0.683062 0.694377 0.728761 0.757656 0.815035 0.822096 0.75084 0.770031 0.907257 0.854837 0.846708 0.920075 0.747424 0.764212 0.827344 0.841075 0.820485 0.843278 0.865458 0.868488 0.90444 0.782394 0.722938 0.886209 0.790434 0.816449 0.22015 0.0937939 0.230004 0.172408 0.131674 0.219194 0.128964 0.225761 0.171059 0.167776 0.23423 0.124527 0.17213 0.228326 0.229963 0.169786 0.615722 0.641319 0.484969 0.622291 0.637724 0.634406 0.664157 0.669153 0.68347 0.562422 0.570386 0.602055 0.517239 0.524898 0.538293 0.652065 0.56519 0.576011 0.587705 0.466246 0.594266 0.613198 0.519565 0.530103 0.651649 0.516953 0.632962 0.573566 0.593852 0.656452 0.576058 0.585862 0.46998 0.480635 0.524076 0.537423 0.0970483 0.104424 0.116565 0.126473 0.0999837 0.105029 0.111249 0.110315 0.113504 0.123491 0.156967 0.18022 0.0929828 0.163167 0.171739 0.129038 0.153223 0.109434 0.125196 0.129162 0.147154 0.0871658 0.108789 0.114991 0.0819082 0.139824 0.137623 0.104527 0.117766 0.0689331 0.0796106 0.0866174 0.077585 0.0826464 0.095887 0.123521 0.0821698 0.104377 0.100705 0.0451749 0.0489422 0.0413179 0.0343383 0.0474468 0.0468279 0.021694 0.0289626 0.0274128 0.0324854 0.0282626 0.0400091 0.0378764 0.0248878 0.035326 0.0360267 0.0246086 0.0327772 0.0245723 0.0324922 0.527207 0.52053 0.525585 0.524958 0.546198 0.547979 0.591694 0.58467 0.505647 0.507427 0.493898 0.496462 0.547233 0.508817 0.539891 0.536662 0.571786 0.539746 0.5742 0.527483 0.488883 0.509961 0.490089 0.530908 0.127206 0.159312 0.146907 0.134671 0.141711 0.148095 0.11597 0.121544 0.124642 0.122326 0.133881 0.12961 0.0555017 0.151047 0.14364 0.0759645 0.0854156 0.0863016 0.0634371 0.146214 0.107811 0.106181 0.105948 0.0284537 0.198119 0.0535183 0.036313 0.164805 0.03685 0.194339 0.0713239 0.0604014 0.0102118 0.0552343 0.0118458 0.0177365 0.0149844 0.026677 0.0270675 0.0331027 0.0201815 0.0794305 0.130271 0.0534558 0.0262012 0.0221999 0.0730962 0.0255452 0.0264459 0.0426237 0.0624104 0.0714344 0.0837252 0.0337777 0.0343063 0.0836049 0.0379949 0.0402081 0.0716124 0.052588 0.0352211 0.0551856 0.0666104 0.0533036 0.0443641 0.0579506 0.0286753 0.0569494 0.0611311 0.0459843 0.0491838 0.0318281 0.0421268 0.0217756 0.0381193 0.0231883 0.0315312 0.0394458 0.0394374 0.0437094 0.0366415 0.034765 0.0304889 0.0219469 0.0442692 0.0299416 0.0259379 0.187609 0.0758695 0.12867 0.0844572 0.136921 0.0613308 0.100939 0.0685038 0.0930179 0.340454 0.344839 0.439645 0.499295 0.344357 0.347627 0.353287 0.361289 0.394398 0.384201 0.366264 0.371618 0.462159 0.426711 0.411291 0.482352 0.361992 0.377322 0.402095 0.400617 0.46303 0.463548 0.481049 0.403399 0.35959 0.409679 0.442618 0.486423 0.504463 0.472059 0.458006 0.476046 0.45761 0.496006 0.475271 0.487874 0.413115 0.440423 0.461988 0.421049 0.428392 0.443373 0.488821 0.446418 0.462176 0.46741 0.421328 0.433305 0.454622 0.442394 0.212865 0.22184 0.199985 0.206617 0.21541 0.137894 0.136102 0.0345273 0.0651976 0.0431036 0.0293945 0.04249 0.0493989 0.535292 0.564948 0.513311 0.540483 0.558001 0.518453 0.547547 0.504671 0.529014 0.53735 0.557084 0.503399 0.527652 0.541236 0.508141 0.532875 0.547328 0.516279 0.535217 0.486938 0.504294 0.481448 0.509636 0.493396 0.492223 0.507945 0.512336 0.514372 0.514136 0.517993 0.528021 0.494849 0.480618 0.525955 0.500314 0.501071 0.0356896 0.0323129 0.0367442 0.0331637 0.0376029 0.0418168 0.0308991 0.0371192 0.0411145 0.0331963 0.0317841 0.0390868 0.0341767 0.0355347 0.0398841 0.0388402 0.0378944 0.0179637 0.0240254 0.0168627 0.0331512 0.04579 0.0303128 0.0192449 0.0199878 0.0199976 0.0239701 0.0136788 0.0383621 0.0350686 0.0184928 0.0266288 0.0212045 0.0390344 0.026417 0.0378731 0.0327218 0.0318863 0.0118495 0.0130773 0.0761763 0.0116385 0.011447 0.0117245 0.0136324 0.0217798 0.0256575 0.0290168 0.0342646 0.0462574 0.0554271 0.0573272 0.0616698 0.0137274 0.03307 0.0341675 0.0390971 3.72529e-09 3.72529e-09 0.00150042 0.00042501 3.72529e-09 3.72529e-09 0.00102333 3.72529e-09 0.00174358 0.00133467 3.72529e-09 3.72529e-09 0.00139296 3.72529e-09 3.72529e-09 0.00218987 0.000717221 3.72529e-09 0.00220255 0.00215828 0.0156585 0.00964408 0.0048775 0.00671355 0.00160773 0.00270811 0.057255 0.0436104 0.0474283 0.0516128 0.0539558 0.0311226 0.0307175 0.039855 0.0197789 0.0222974 0.0220543 0.0466158 0.0311163 0.0359469 0.0378177 0.0551722 0.0559774 0.0572563 0.0428688 0.0491703 0.0261707 0.0332212 0.0462837 0.0220957 0.0415798 0.0317095 0.0449583 0.0483257 0.0354427 0.0405499 0.0215016 0.0286884 0.758331 0.739266 0.76233 0.75537 0.749542 0.766343 0.746358 0.765163 0.75287 0.757288 0.784498 0.698493 0.729576 0.748657 0.758733 0.829745 0.862179 0.714935 0.778445 0.795281 0.798397 0.810495 0.762773 0.832664 0.0625982 0.046571 0.0301507 0.0635317 0.0701487 0.0486446 0.928375 0.885601 0.91502 0.92689 0.93232 0.929114 0.925985 0.902507 0.91576 0.925315 0.935096 0.93482 0.935349 0.925483 0.929965 0.913064 0.918983 0.90884 0.866272 0.927511 0.916483 0.896486 0.908264 0.92334 0.0256137 0.0240047 0.0412408 0.0427014 0.0261468 0.0235945 0.0268384 0.0317193 0.0185769 0.0355699 0.0161527 0.089853 0.0776428 0.0611038 0.0671538 0.071482 0.0662775 0.0797256 0.0549027 0.0614672 0.065009 0.064285 0.0514505 0.377667 0.412582 0.438692 0.445138 0.459802 0.382435 0.392721 0.43464 0.378554 0.383797 0.4053 0.427326 0.389749 0.405085 0.418027 0.350887 0.411911 0.43577 0.375611 0.390428 0.414501 0.364673 0.394655 0.375839 0.420338 0.427459 0.387423 0.404833 0.360022 0.369218 0.373352 0.400091 0.0983371 0.0791646 0.0852879 0.0947861 0.10403 0.111006 0.112466 0.0968352 0.0806355 0.0883663 0.0946277 0.0885738 0.0980778 0.0978032 0.102648 0.0946262 0.108077 0.147318 0.137967 0.12239 0.148662 0.123147 0.149492 0.138484 0.139264 0.103646 0.12975 0.118365 0.325968 0.378464 0.329181 0.330062 0.32285 0.325017 0.340481 0.344463 0.331879 0.354654 0.348742 0.352358 0.329315 0.34275 0.33403 0.332512 0.33365 0.329069 0.324105 0.345975 0.364548 0.333073 0.333809 0.338545 0.326711 0.344343 0.408874 0.395676 0.395372 0.366898 0.343704 0.373266 0.347215 0.357398 0.366523 0.348562 0.924097 0.803491 0.842066 0.874978 0.883902 0.920315 0.915884 0.825191 0.861906 0.873876 0.877268 0.895031 0.911399 0.866632 0.910703 0.856892 0.8815 0.834434 0.786073 0.88628 0.845619 0.830599 0.849515 0.901263 0.0691511 0.0968118 0.0859691 0.0830618 0.0939565 0.0710729 0.0889306 0.0740823 0.0870715 0.0843966 0.124787 0.129783 0.0880933 0.122193 0.111839 0.112211 0.102412 0.106187 0.0952834 0.109676 0.444866 0.459832 0.451335 0.456495 0.476354 0.486098 0.511267 0.509942 0.434488 0.453913 0.438665 0.449927 0.482737 0.44667 0.47701 0.481893 0.499143 0.463643 0.502341 0.459125 0.424406 0.433214 0.429553 0.45618 0.054379 0.0521615 0.0454739 0.041388 0.0555356 0.0523093 0.0551824 0.0426615 0.0529879 0.0565429 0.0527457 0.0381356 0.642296 0.685339 0.687167 0.658237 0.673605 0.651845 0.691604 0.673377 0.691742 0.705738 0.747173 0.730556 0.773674 0.790831 0.771185 0.673242 0.72811 0.720561 0.741222 0.707121 0.727964 0.717954 0.671029 0.695208 0.739691 0.749219 0.112944 0.126452 0.104567 0.0776448 0.0905104 0.0789084 0.103696 0.0899218 0.101445 0.0904401 0.0981985 0.0879014 0.0956599 0.0976179 0.08905 0.121592 0.103234 0.136016 0.127627 0.113215 0 0.00230533 0.00243061 0.0161765 0.00289938 0.0100327 0.00480474 0.0126556 0 0.00519981 0.00607308 0.00190025 0.00664544 0.0040255 0.00265876 0.0079107 0.013892 0.00806489 0.00380905 0.0148137 0.00988587 0.0097193 0.282938 0.306076 0.297016 0.294445 0.310693 0.312359 0.286156 0.292532 0.302322 0.263438 0.293135 0.317641 0.284193 0.278095 0.294128 0.27597 0.305596 0.280747 0.2992 0.298031 0.275607 0.255437 0.273512 0.289064 0.252843 0.271937 0.254632 0.230375 0.263982 0.241785 0.248176 0.217347 0.239396 0.254154 0.0752725 0.0756056 0.0891195 0.0787634 0.0860848 0.076617 0.0724671 0.0778763 0.0752443 0.0731238 0.0754396 0.0760448 0.0723302 0.076422 0.0752003 0 0 0 0.0182772 0.0277976 0.0124942 0.322585 0.338354 0.294738 0.333776 0.339058 0.318523 0.329803 0.309446 0.31661 0.286302 0.312923 0.322148 0.313616 0.297979 0.32796 0.315839 0.099507 0.090175 0.0783133 0.0896939 0.0716325 0.0812452 0.0760151 0.0762285 0.747816 0.758943 0.756009 0.775277 0.767801 0.787051 0.785632 0.772268 0.729911 0.733728 0.740161 0.742769 0.758615 0.752077 0.760805 0.751501 0.773196 0.0285038 0.0206406 0.0230663 0.0061395 0.0262363 0.0220152 0.0197333 0.0260867 0.0194538 0.0262557 0.021446 1.49012e-08 1.49012e-08 0.0105838 1.49012e-08 1.49012e-08 0.0202662 0.0126483 0.0120058 1.49012e-08 0.014413 0.0237587 0.0167979 0.0211397 0.0163735 0.0136973 0.018825 0.0133219 0.017343 0.0247116 0.0212009 0.0286765 0.0130354 0.0176771 0.021209 0.015733 0.0177647 0.0103464 0.0180924 0.00980533 0.344901 0.358228 0.361542 0.369437 0.35086 0.372134 0.374114 0.36093 0.340237 0.332855 0.349574 0.352126 0.451134 0.43317 0.461457 0.443379 0.458404 0.472289 0.492874 0.448686 0.461631 0.469343 0.405551 0.423674 0.437624 0.429744 0.450088 0.45131 0.455536 0.407555 0.408685 0.441513 0.428463 0.430944 0.442716 0.475217 0.780822 0.792736 0.778385 0.0152937 0.011893 0.0535402 0 0.0124324 0.0111541 0.0263486 0.0176564 0.0399569 0.0358801 0.0117505 0.00991155 0.0277861 0.00720923 0.00843603 0.011543 0.0225507 0.00966338 0.0178043 0.0134052 0.00764601 1.49012e-08 1.49012e-08 0.00152653 1.49012e-08 0.00456572 1.49012e-08 0.00161474 1.49012e-08 0.00666415 0 0 0.00233305 0 0 1.49012e-08 0 0.0037408 0 0.958003 0.937823 0.944357 0.939414 0.947354 0.938294 0.942904 0.943071 0.947767 0.952185 0.953129 0.943085 0.942598 0.944165 0.951179 0.925304 0.932206 0.930879 0.930608 0.933776 0.934604 0.934388 0.946725 0.938941 0.941875 0.925417 0.968275 0.933471 0.994667 0.939839 0.95779 0.930506 0.95884 0.933512 0.946472 0.948583 0.9709 0.955876 0.976353 0.979679 0.978387 0.945277 0.963012 0.95688 0.969638 0.907889 0.917599 0.927001 0.912327 0.91633 0.923213 0.116415 0.122544 0.0574375 0.101233 0.121541 0.0852314 0.0932285 0.107481 0.0587834 0.0805305 0.0854545 0.536559 0.560385 0.665295 0.540958 0.551049 0.574286 0.60321 0.624744 0.639233 0.603188 0.612238 0.664207 0.676702 0.675856 0.694625 0.588739 0.609446 0.636555 0.640707 0.62311 0.636387 0.652506 0.653694 0.695022 0.594146 0.56002 0.660256 0.605957 0.636543 0.665092 0.596975 0.685043 0.648832 0.66343 0.685503 0.631131 0.0499238 0 0.0394045 0.0223555 0.0648708 0.0560921 0.0658649 0.0697214 0.0621116 0.0498683 0.0771498 0.0734994 0.0625179 0.0559756 0.0764634 0.0751741 0.0576853 0.0641271 0.0570176 0.058814 0.0615602 0.0623477 0.0681972 0.0711285 1.00108 0.971873 0.989207 0.968883 0.990622 0.952737 0.980916 0.964279 0.978694 0.742463 0.745097 0.749102 1.00942 1.0126 0.987935 0.0446193 0.0514314 0.0454945 0.0479239 0.0514148 0.0506668 0.0688431 0.0664167 0.0580188 0.0610991 0.108262 0.068795 0.0706035 0.0994429 0.0520802 0.0601623 0.0686195 0.0746589 0.0893922 0.0750197 0.0619677 0.0521753 0.0618184 0.0660659 0.0859161 0.401773 0.423496 0.368426 0.369719 0.398671 0.425007 0.400769 0.373101 0.584029 0.593719 0.6733 0.67077 0.57925 0.594117 0.66807 0.668127 0.593936 0.589629 0.665158 0.669359 0.661394 0.577651 0.659354 0.127458 0.0659158 0.057294 0.0997106 0.0775373 0.117189 0.10577 0.0876365 0.0652572 0.100004 0.0717888 0.0953864 0.106966 0.116486 0.0779364 0.0568206 0.0870694 0.0425615 0.0458085 0.0547649 0.82962 0.856313 0.781821 0.7938 0.882398 0.891952 0.824284 0.905305 0.905321 0.889694 0.84227 0.888047 0.846634 0.860631 0.79825 0.877276 0.769928 0.825359 0.81235 0.781166 0.844765 0.888093 0.874633 0.852135 0.781791 0.894908 0.861742 0.838666 0.0895872 0.109932 0.0802275 0.0861664 0.0736767 0.0765461 0.0830743 0.0894968 0.0764016 0.0650348 0.0711468 0.0981944 0.257118 0.272426 0.220313 0.261303 0.267169 0.233265 0.262358 0.222266 0.244788 0.217673 0.239495 0.218179 0.193944 0.209823 0.204825 0.247233 0.227176 0.210821 0.232832 0.205058 0.186517 0.184049 0.218018 0.207047 0.191057 0.19462 0.136563 0.142 0.123353 0.539309 0.464682 0.497382 0.520588 0.50772 0.487804 0.509894 0.510674 0.522225 0.494649 0.510077 0.476925 0.478997 0.494791 0.491681 0.808209 0.82005 0.783023 0.786958 0.591059 0.622088 0.673884 0.679947 0.613328 0.596905 0.612723 0.59102 0.528046 0.519966 0.504923 0.513449 0.508557 0.522667 0.507995 0.507454 0.511528 0.494479 0.496479 0.518022 0.0403656 0.0471762 0.0521288 0.473746 0.518159 0.550409 0.541279 0.507039 0.52392 0.541784 0.515308 0.522773 0.530052 0.529408 0.481648 0.490854 0.588963 0.593533 0.438479 0.443202 0.508231 0.50599 0.492364 0.444463 0.540035 0.552984 0.562771 0.500994 0.479907 0.451178 0.566956 0.528505 0.537411 0.497343 0.464761 0.462735 0.28976 0.316508 0.310059 0.309637 0.282508 0.309878 0.307101 0.312511 0.525095 0.528387 0.542442 0.543302 0.53098 0.529826 0.535166 0.524492 0.529707 0.521205 0.534612 0.517657 0.151015 0.137907 0.149929 0.141621 0.14482 1.49012e-08 1.49012e-08 1.49012e-08 0 0 0 0.0821844 0.0411671 0.115309 0.134635 0.0597263 0.0611998 0.112367 0.152751 0.155912 0.18028 0.1556 0.172106 0.14412 0.122845 0.167946 0.13756 0.153677 0.122467 0.136346 0.14487 0.120294 0.107261 0.12595 0.136468 0.132295 0.143089 0.117701 0.0898971 0.108778 0.101553 0.108192 0.909097 0.950317 0.947665 0.962042 0.932994 0.921795 0.926159 0.90704 0.887268 0.894643 0.904521 0.924307 0.00872042 0.0273532 0.00271104 0.0147798 0.0147498 0.0208675 0.00616887 0.0217325 0.00400069 0.0108862 0.0179903 0.0290821 0.0150633 0.0208464 0.0270051 0.0201951 0.0130575 0.0239858 0.0156361 0.0227887 0.00873193 0.0044499 0.0012653 0.010109 0.0185445 0.00504235 0.00795292 0.0125958 0.00472317 0.0161342 0.0136992 0.0138204 0.0143763 0.0199251 0.0166866 0.0127907 0.00711695 0.0201971 0.0151961 0.0133159 0.00261426 3.72529e-09 0 0.040044 3.72529e-09 3.72529e-09 0.000806315 3.72529e-09 0.00152384 0 0.0024204 3.72529e-09 3.72529e-09 0.0146965 0 3.72529e-09 3.72529e-09 3.72529e-09 3.72529e-09 3.72529e-09 0.016796 0.00799991 0.00380469 0.015321 0.0231333 0.0115539 0.00316507 0.00517956 0.00434956 0.0113836 0.0450761 0.0437762 0.0428746 0.0307341 0.00911761 0.0365314 0.0264386 0.0220688 0.0283936 0.0205547 0.709267 0.72867 0.598988 0.603301 0.795839 0.837055 0.553085 0.756492 0.778103 0.617548 0.718443 0.817856 0.669252 0.679674 0.549168 0.619126 0.58081 0.703452 0.552399 0.595804 0.656775 0.724983 0.780484 0.611863 0.549102 0.742208 0.609407 0.646195 0.477513 0.48573 0.490002 0.488688 0.482169 0.539535 0.547025 0.489978 0.477769 0.54204 0.54987 0.488983 0.197903 0.175334 0.180183 0.195271 0.289992 0.282179 0.276685 0.268931 0.251723 0.245209 0.23433 0.258008 0.232259 0.223263 0.24366 0.0150321 0.0120973 0 0.0123451 0 0.0220223 0.0299708 0.00362535 0.0190103 3.72529e-09 0.0222714 0.0202258 0.0189307 0.0305418 0.0254716 0.0387178 0.0366767 0.0235448 0.0224197 0.0285912 0.018724 0.0306972 0.0254359 0.0334887 0.979656 0.943621 0.970045 0.993882 0.965381 0.974032 0.989428 0.959409 0.968153 0.977955 0.947847 0.984745 0.966026 0.935751 0.926766 0.957962 0.959449 0.973589 0.948942 0.97831 1.49012e-08 1.49012e-08 0.00319019 0.00342487 1.49012e-08 0.00490683 1.49012e-08 0.00226084 0.00164147 0.874049 0.916044 0.915037 0.933622 0.894274 0.830422 0.853995 0.820614 0.0179083 0.053694 0.0278659 0.0671414 0.0247859 0.0359012 0.0214638 0.0595309 0.0243477 0.0425498 0.0211468 0.0212592 0.0329901 0.03615 0.0323105 0.0492115 0.0363585 0.0208008 0.0243467 0.0239483 0.01335 0.0209265 0.0237017 0.0296606 0.0493273 0.014716 0.0134706 0.0346091 0.0190251 0.0256045 0.0299559 0.04318 0.0545382 0.026999 0.0194808 0.0259502 0.0163489 0.0340945 0.0407752 0.0195875 0.786449 0.822762 0.947061 0.796135 0.816263 0.845584 0.878021 0.908705 0.919798 0.841207 0.883882 0.940742 0.903805 0.922112 0.936733 0.87024 0.865303 0.898959 0.91991 0.865898 0.817422 0.880157 0.0106747 2.32831e-10 1.49012e-08 0 0.00393879 0 0.00769655 0 0.00238657 0 0 0 0 0 0 2.32831e-10 0.00285679 0 0 0 0.00711475 0.0153549 0.0053381 0.0028482 0.00431671 0.000266307 0.00930984 0.00329055 0.00552942 0.0154097 0.0119109 0.0125054 0.00239353 0.00439791 0.0106839 0.00478163 0.00523993 0 0.00443014 0 0 0 0 0 0 0 0 0 0 0 0 0 0 0 0 0 0.0274266 0.00759885 0 0.0133118 0.00608356 0.00337724 1.49012e-08 0.0222315 1.49012e-08 0.0176185 0.00634334 0.0121183 0.00924875 0.0103265 0.00979542 0.00603342 0.00498886 0.00287779 0.00536364 0.00395612 0.002686 0.00121296 0.00433465 0.00516539 0.00324621 0.0014789 0.00169429 0.00976352 0.00158886 0.00854683 0.00474867 0.00487562 0.00446527 0.00289974 0.00113832 0.0443381 0.0289925 0.0117511 0.00691674 0.021405 0.0220022 0.0180867 0.011759 0.0279459 0.0196227 0.0196066 0.0256598 0.00970356 0.0139385 0.0185238 0.0163202 0.0311003 0.0344512 0.0372158 0.0353605 0.0276969 0.0201328 0.0141719 0.0319734 0.017913 0.0196539 0.0315388 0.0310688 0.0280294 0.015696 0.0142026 0.0307103 0.0295732 0.016046 0.0307228 0.0201795 0.016385 0.018321 0.0294967 0.0273214 0.0197215 0.0109452 0.0136879 0.0156279 0.0119446 0.0194057 0.0128112 0.0130443 1.49012e-08 1.49012e-08 1.49012e-08 1.49012e-08 1.49012e-08 0.282344 0.317134 0.329289 0.303994 0.309827 0.316769 0.325389 0.283684 0.299616 0.303927 0.281213 0.323502 0.320549 0.300143 0.304992 0.694901 0.509206 0.5