# vtk DataFile Version 5.1
vtk output
ASCII

DATASET UNSTRUCTURED_GRID
POINTS 7842 float
-0.226579 0.47997 -0.0443542
-0.0687867 0.509432 0.114545
-0.0417599 0.547693 -0.0743395
-0.159083 0.50781 0.0160412
-0.105296 0.517331 0.0672908
-0.156673 0.509683 -0.0461602
-0.0449964 0.541734 0.0452784
-0.0951604 0.53162 -0.0572592
-0.0349999 0.554118 -0.0174772
-0.0936266 0.534531 0.00197568
-0.035778 0.475367 -0.0547172
-0.0323054 0.504168 -0.0658966
-0.0315868 0.52837 -0.0723724
-0.619235 0.233972 -0.00656954
-0.66538 0.195191 -0.0116132
-0.689391 0.256223 0.0391617
-0.699442 0.300732 -0.0787531
-0.641408 0.21231 -0.00849043
-0.654985 0.202303 -0.00952953
-0.647397 0.247378 0.00461921
-0.675104 0.215951 0.00613168
-0.670589 0.252749 0.0253159
-0.683561 0.237117 0.0216694
-0.644393 0.255397 -0.0355502
-0.668358 0.238821 -0.03153
-0.695358 0.27742 -0.000974996
-0.668962 0.284509 -0.0588119
-0.677004 0.274469 -0.0549503
-0.695903 0.293897 -0.0391887
-0.662566 0.227831 0.0080578
-0.659398 0.244777 -0.0329976
-0.66538 0.275441 -0.0232028
-0.681958 0.259439 -0.0168747
-0.633244 0.309776 -0.0654695
-0.67816 0.282828 0.0150216
-0.656823 0.30089 -0.0239554
-0.627721 0.279534 -0.0448847
-0.622146 0.256572 -0.0248917
-0.651242 0.275706 -0.00740291
-0.657575 0.30801 -0.0681219
-0.678132 0.308682 -0.0717967
-0.65029 0.278261 -0.0516185
-0.677626 0.296779 -0.0283024
-0.342726 0.0701753 -0.305827
-0.366942 0.0591935 -0.319831
-0.345233 0.238136 -0.205524
-0.311399 0.0427844 -0.394728
-0.35133 0.0663136 -0.309101
-0.359028 0.059651 -0.314102
-0.340825 0.126281 -0.280047
-0.346842 0.113827 -0.306462
-0.345281 0.182707 -0.247856
-0.338993 0.178932 -0.264673
-0.332006 0.0605565 -0.330396
-0.342158 0.0617006 -0.341712
-0.322657 0.154191 -0.267152
-0.321017 0.0497031 -0.363114
-0.322713 0.0550809 -0.36912
-0.310061 0.0768976 -0.329156
-0.343952 0.119803 -0.292962
-0.337578 0.0605973 -0.337617
-0.325037 0.0972425 -0.305179
-0.328338 0.0948676 -0.316581
-0.373523 0.217582 -0.180857
-0.320128 0.0290104 -0.366146
-0.372609 0.230156 -0.187244
-0.361135 0.231678 -0.198035
-0.343907 0.168377 -0.223456
-0.328992 0.155863 -0.254587
-0.317116 0.0789749 -0.299906
-0.311252 0.078428 -0.307279
-0.356304 0.184916 -0.217543
-0.32362 0.0426143 -0.344857
-0.342505 0.119776 -0.269492
-0.331377 0.058894 -0.321389
-0.333753 0.153696 -0.247361
-0.350325 0.178284 -0.239267
-0.330333 0.105871 -0.279624
-0.325266 0.102129 -0.291198
-0.316418 0.0345029 -0.378034
-0.314319 0.0384755 -0.387341
-0.32187 0.0464737 -0.353674
-0.310989 0.0779959 -0.318141
-0.0462737 0.0911449 -0.173694
-0.0463251 0.0720755 -0.12764
-0.0171075 0.0915847 -0.231202
-0.0294303 0.0768704 -0.166146
-0.0330746 0.0708166 -0.151902
-0.0313937 0.088784 -0.195997
-0.0385346 0.0702807 -0.154896
-0.0229822 0.0861982 -0.213845
-0.0275819 0.0745596 -0.19033
-0.0248726 0.0742969 -0.179652
-0.0692057 0.0975905 -0.134198
-0.0617384 0.093445 -0.13138
-0.0511623 0.081606 -0.130825
-0.0463099 0.0812748 -0.143018
-0.027405 0.0811928 -0.190712
-0.0396208 0.075335 -0.156861
-0.0274152 0.0775857 -0.195619
-0.0246632 0.0820983 -0.205413
-0.0190965 0.088873 -0.223652
-0.03562 0.0780779 -0.169525
-0.0519757 0.082902 -0.139462
-0.0338265 0.0803262 -0.174617
-0.459266 0.274006 -0.171613
-0.438157 0.292205 -0.191176
-0.418509 0.255542 -0.109279
-0.452155 0.280934 -0.181585
-0.444413 0.284263 -0.187292
-0.445786 0.266307 -0.141283
-0.433616 0.276682 -0.156715
-0.429502 0.258519 -0.123542
-0.428046 0.265713 -0.128609
-0.429848 0.262338 -0.15907
-0.413313 0.275181 -0.173296
-0.390061 0.25211 -0.140305
-0.385073 0.249763 -0.174414
-0.379395 0.260069 -0.173461
-0.365283 0.244966 -0.172433
-0.438567 0.272114 -0.14869
-0.421772 0.267498 -0.168407
-0.409422 0.256787 -0.148737
-0.403541 0.263514 -0.152911
-0.419631 0.242741 -0.123141
-0.417252 0.245856 -0.11888
-0.415611 0.249831 -0.116277
-0.403842 0.238484 -0.142618
-0.401314 0.249137 -0.139521
-0.387433 0.226352 -0.160348
-0.387684 0.237471 -0.160957
-0.437305 0.24777 -0.133378
-0.407294 0.244683 -0.157495
-0.450775 0.257699 -0.148013
-0.438925 0.260183 -0.151805
-0.400102 0.242264 -0.145102
-0.433589 0.254776 -0.129725
-0.424485 0.248742 -0.144565
-0.419757 0.253691 -0.141395
-0.402654 0.250654 -0.164169
-0.377929 0.241952 -0.167879
0.13347 0.539839 0.00971025
0.0172862 0.540011 0.0782771
0.083475 0.549458 0.0436278
0.0885736 0.558201 -0.0168522
0.0309538 0.561504 -0.0455581
0.0308235 0.560644 0.0135246
0.0881012 0.517393 -0.00457302
0.0328983 0.490833 -0.0230665
0.0364902 0.530821 -0.0353313
-0.556021 0.362187 -0.150706
-0.635671 0.38462 -0.13654
-0.513459 0.296512 -0.224377
-0.582756 0.372259 -0.151671
-0.606289 0.380036 -0.148241
-0.518301 0.340653 -0.196252
-0.570862 0.373722 -0.188505
-0.471755 0.310744 -0.208517
-0.49892 0.33933 -0.216093
-0.556908 0.343128 -0.180564
-0.599844 0.367393 -0.175846
-0.450855 0.295251 -0.212474
-0.534154 0.321215 -0.207974
-0.559025 0.337285 -0.208126
-0.475905 0.29677 -0.223229
-0.538756 0.356966 -0.198441
-0.577346 0.354192 -0.180531
-0.506006 0.320473 -0.211334
-0.526761 0.33945 -0.217517
-0.49462 0.28399 -0.192899
-0.47046 0.278381 -0.182148
-0.454377 0.287383 -0.201882
-0.482001 0.281971 -0.186836
-0.476254 0.28846 -0.199781
-0.478462 0.304124 -0.183995
-0.513229 0.310062 -0.1838
-0.515093 0.3412 -0.180629
-0.5371 0.336582 -0.168654
-0.463892 0.285823 -0.194292
-0.479975 0.311782 -0.197442
-0.495288 0.309037 -0.185738
-0.491416 0.311624 -0.199894
-0.501873 0.290564 -0.207227
-0.504133 0.2914 -0.218248
-0.529924 0.322026 -0.195059
-0.47892 0.293658 -0.214089
-0.106998 0.0774946 0.166477
-0.10528 0.0589763 0.198255
-0.0126681 0.0745599 0.143731
-0.0970645 0.144059 0.110815
-0.107063 0.0704491 0.175806
-0.104451 0.0618261 0.185474
-0.0828003 0.0811014 0.190659
-0.0825743 0.0681629 0.221792
-0.0466908 0.0757034 0.18692
-0.04915 0.0736832 0.206165
-0.110486 0.0947557 0.154883
-0.10685 0.0874596 0.18656
-0.0467039 0.0963957 0.17256
-0.103789 0.118055 0.133561
-0.104012 0.11382 0.156496
-0.0807297 0.126177 0.163522
-0.0807847 0.0736192 0.206113
-0.108859 0.0898953 0.171783
-0.0813214 0.102675 0.175083
-0.0761694 0.096364 0.194491
-0.0421624 0.0783805 0.159477
-0.0845477 0.116031 0.0753422
-0.0319143 0.0757841 0.158864
-0.0220212 0.0723344 0.154859
-0.0594695 0.0876502 0.151293
-0.045276 0.0906276 0.160618
-0.08067 0.102937 0.125877
-0.0805973 0.111309 0.138931
-0.0615039 0.0810913 0.17287
-0.102987 0.104156 0.125446
-0.0870136 0.0816706 0.17334
-0.105603 0.0874611 0.152552
-0.0549243 0.0914177 0.155914
-0.0574148 0.0780591 0.182348
-0.0827461 0.0923304 0.158373
-0.0770131 0.0942838 0.168538
-0.0926148 0.129959 0.0911494
-0.0954267 0.136111 0.100146
-0.10471 0.110342 0.131128
-0.0796996 0.117073 0.151511
-0.274387 0.220347 -0.0888737
-0.257942 0.203673 -0.126488
-0.0261435 0.0192435 -0.236055
-0.138186 0.0563548 -0.134073
-0.27154 0.213239 -0.100867
-0.26265 0.20712 -0.112722
-0.189385 0.151663 -0.130045
-0.174881 0.135523 -0.153326
-0.0940801 0.0702308 -0.18357
-0.0966027 0.0692454 -0.186615
-0.230454 0.171202 -0.101038
-0.209714 0.146492 -0.12859
-0.0649564 0.0278448 -0.208439
-0.175928 0.109507 -0.118177
-0.168824 0.0983661 -0.130006
-0.103541 0.0408412 -0.175011
-0.179865 0.140968 -0.142903
-0.218427 0.156317 -0.115975
-0.140728 0.0910931 -0.147849
-0.132367 0.0829917 -0.159709
-0.0494071 0.0274544 -0.200414
-0.159836 0.114619 -0.109834
-0.0435602 0.0273685 -0.211689
-0.0296385 0.0210522 -0.227202
-0.0893222 0.0545978 -0.171087
-0.070475 0.0334042 -0.197753
-0.129522 0.085306 -0.138346
-0.122262 0.0688969 -0.148939
-0.114428 0.0894664 -0.158228
-0.197548 0.15218 -0.102111
-0.197304 0.162544 -0.116412
-0.237744 0.189821 -0.0918514
-0.0815056 0.0451593 -0.182676
-0.112635 0.08631 -0.166237
-0.158997 0.123136 -0.127799
-0.143651 0.102483 -0.142882
-0.156642 0.0978975 -0.117463
-0.143582 0.0720792 -0.129167
-0.189653 0.133422 -0.109731
-0.110413 0.051924 -0.165048
-0.309405 0.0767118 -0.472864
-0.338025 0.0526621 -0.341787
-0.339995 0.0656376 -0.366202
-0.308052 0.0622709 -0.435033
-0.321862 0.0599238 -0.406848
-0.320234 0.0714568 -0.418766
-0.306932 0.0737623 -0.461983
-0.340332 0.0557691 -0.353923
-0.323531 0.0548558 -0.383526
-0.320545 0.0651616 -0.398545
-0.317764 0.0440015 -0.40118
-0.31199 0.0628042 -0.443801
-0.312943 0.0526811 -0.417233
-0.324058 0.0480097 -0.374614
-0.319683 0.0536902 -0.432163
-0.316119 0.061154 -0.443706
-0.312609 0.0683972 -0.459576
-0.327458 0.0466133 -0.376292
-0.338363 0.0504915 -0.329546
-0.320742 0.0454923 -0.410038
-0.322334 0.0366737 -0.386028
-0.325648 0.0521413 -0.38667
-0.31664 0.0529941 -0.42345
-0.327223 0.0423879 -0.35853
-0.631422 0.350272 0.0137363
-0.681337 0.371392 0.0503722
-0.592854 0.311296 0.15281
-0.582865 0.387295 0.0505738
-0.656051 0.355117 0.0398179
-0.670578 0.362159 0.0511095
-0.637566 0.314224 0.0729338
-0.677656 0.328961 0.095618
-0.624057 0.30048 0.121271
-0.646271 0.309237 0.130837
-0.615682 0.364863 0.0367584
-0.658522 0.386527 0.072573
-0.609899 0.341698 0.130989
-0.602645 0.378682 0.0461179
-0.624209 0.393183 0.0748684
-0.610045 0.366802 0.0967522
-0.657486 0.323871 0.0884951
-0.640104 0.37723 0.0602959
-0.619918 0.338853 0.0819915
-0.650396 0.352441 0.106958
-0.545273 0.359668 0.0226013
-0.557897 0.373751 0.030875
-0.573775 0.380538 0.0397974
-0.580685 0.34116 0.0199466
-0.607837 0.335453 0.0197055
-0.592071 0.362704 0.033102
-0.307394 0.0607377 -0.265926
-0.286614 0.0384223 -0.292844
-0.328923 -0.0359583 -0.433503
-0.31616 0.0168072 -0.456008
-0.29993 0.0569316 -0.274712
-0.294918 0.0441437 -0.287144
-0.308018 0.0173001 -0.308306
-0.301057 0.000492038 -0.335074
-0.320785 -0.0221034 -0.378839
-0.316299 -0.028347 -0.383876
-0.306767 0.0177753 -0.324317
-0.296061 0.0126484 -0.342634
-0.323674 -0.0140155 -0.457912
-0.313698 0.00399454 -0.403825
-0.308649 0.000137303 -0.398437
-0.319083 0.00171575 -0.462698
-0.305289 0.0066777 -0.325626
-0.30195 0.015181 -0.337288
-0.316061 -0.00874831 -0.38778
-0.312763 -0.0143943 -0.397969
-0.326348 -0.0180919 -0.386454
[...]
POINT_DATA 7842
SCALARS Norm_u float 1
LOOKUP_TABLE default
0.194717 0.122232 0.155297 0.162076 0.136921 0.173545 0.131503 0.160609 0.142198 0.148502 0.136145 0.143922 0.149724 0.423532 0.472737 0.476339 0.49045 0.446595 0.461049 0.446677 0.473638 0.462716 0.474727 0.448682 0.467669 0.476573 0.468635 0.47235 0.478157 0.461016 0.460806 0.460492 0.470899 0.446699 0.465512 0.453433 0.436395 0.428255 0.448655 0.464446 0.477713 0.454815 0.4676 0.810865 0.848484 0.604913 0.879148 0.823164 0.838909 0.738252 0.776651 0.668921 0.69022 0.837883 0.855854 0.711212 0.862667 0.867099 0.814974 0.757757 0.84871 0.784601 0.798671 0.579947 0.867493 0.585207 0.597501 0.656586 0.695795 0.787515 0.795579 0.633957 0.851156 0.733172 0.82758 0.689875 0.661542 0.752108 0.767591 0.871475 0.875472 0.856307 0.804984 0.861077 0.883949 0.883695 0.886096 0.893252 0.875696 0.891591 0.886014 0.893521 0.893754 0.829618 0.841792 0.864915 0.863868 0.882437 0.879779 0.883019 0.882979 0.882541 0.874045 0.855736 0.875789 0.506681 0.519351 0.538621 0.511152 0.517419 0.521312 0.528273 0.535402 0.534457 0.533154 0.542161 0.55691 0.568444 0.568416 0.580483 0.525296 0.538058 0.548275 0.550445 0.538154 0.539582 0.540094 0.548957 0.551505 0.566979 0.56681 0.531536 0.553332 0.519268 0.527343 0.553669 0.531883 0.53996 0.54224 0.555521 0.573293 0.117277 0.118118 0.118496 0.12674 0.138325 0.128168 0.119474 0.123012 0.131444 0.441587 0.474624 0.486779 0.455307 0.464792 0.467016 0.470889 0.496911 0.486973 0.455833 0.470284 0.513273 0.472896 0.475346 0.502098 0.470233 0.463818 0.482051 0.484148 0.476094 0.495779 0.509311 0.485761 0.491805 0.483365 0.460686 0.457066 0.445491 0.500395 0.48723 0.47121 0.479773 0.477464 0.485479 0.463514 0.497169 0.00855041 0.0156606 0.0982223 0.0209778 0.00862679 0.0109139 0.00810021 0.01566 0.0376322 0.0329764 0.009056 0.00856768 0.0387287 0.0132056 0.00888008 0.0161285 0.0126022 0.00680439 0.00793378 0.0107567 0.048761 0.024628 0.0595988 0.0754266 0.0342946 0.0452444 0.025776 0.0243322 0.0198625 0.0172093 0.00727139 0.00882214 0.035835 0.023564 0.0132464 0.012101 0.0250541 0.0238643 0.0151691 0.0199105 0.575971 0.605268 0.912629 0.779095 0.584155 0.596144 0.684131 0.7123 0.819555 0.819985 0.633519 0.671735 0.874079 0.712785 0.728722 0.828982 0.701643 0.655277 0.761044 0.776138 0.88804 0.715165 0.892474 0.907492 0.831733 0.865831 0.77096 0.790992 0.786876 0.665746 0.668025 0.615311 0.846125 0.791729 0.721542 0.750503 0.730687 0.762145 0.685353 0.814614 0.872944 0.856422 0.868757 0.878261 0.874568 0.876734 0.8761 0.864247 0.871055 0.874777 0.874715 0.876028 0.876697 0.868207 0.871214 0.872512 0.873535 0.869293 0.848378 0.872799 0.871279 0.870911 0.874609 0.86306 0.427786 0.462465 0.343098 0.40019 0.44358 0.453554 0.421328 0.45651 0.390847 0.415041 0.417658 0.452448 0.383548 0.412013 0.429446 0.40556 0.437497 0.435718 0.41056 0.437543 0.359708 0.376235 0.391508 0.387089 0.40827 0.40026 0.766263 0.79048 0.886923 0.888605 0.770439 0.784953 0.815737 0.835523 0.866467 0.871595 0.829988 0.83959 0.88495 0.875057 0.877577 0.887491 0.828439 0.835595 0.867985 0.875821 0.869842 0.876722 0.883451 0.880054 0.888106 0.846967 0.80461 0.88403 0.852523 0.861325 0.296648 0.158189 0.256354 0.249089 0.2035 0.27893 0.190281 0.266719 0.222509 0.233674 0.266241 0.181501 0.217529 0.257621 0.258238 0.21769 0.721988 0.772964 0.51584 0.739919 0.762367 0.745231 0.782103 0.77379 0.788986 0.646565 0.686467 0.70498 0.570235 0.588897 0.600888 0.767958 0.663426 0.666353 0.695831 0.526044 0.657359 0.698294 0.557621 0.573915 0.746578 0.558906 0.735986 0.646255 0.664223 0.756795 0.642246 0.664846 0.523504 0.522165 0.574086 0.591771 0.12433 0.128282 0.143273 0.120722 0.125548 0.133541 0.122959 0.136608 0.122832 0.13062 0.233644 0.264876 0.143982 0.245812 0.256886 0.200603 0.233986 0.171236 0.193697 0.202434 0.229263 0.141326 0.177849 0.189949 0.14353 0.216899 0.216443 0.169782 0.189157 0.114436 0.128593 0.138134 0.129302 0.142011 0.152368 0.191324 0.135728 0.164805 0.162329 0.0301936 0.0459482 0.095861 0.0330133 0.036967 0.0398568 0.0132182 0.0181306 0.0404777 0.0355982 0.0197042 0.0240449 0.0575394 0.0228224 0.0262476 0.0400237 0.0158149 0.0215724 0.0246002 0.0253214 0.55935 0.56009 0.561314 0.563627 0.613665 0.635423 0.707273 0.712351 0.541809 0.543633 0.530762 0.528714 0.626154 0.546442 0.612079 0.613422 0.650779 0.588776 0.669311 0.580128 0.533172 0.546871 0.534019 0.578163 0.133645 0.168274 0.145414 0.125037 0.121967 0.138042 0.131168 0.134196 0.133493 0.12577 0.122794 0.126609 0.0819804 0.188195 0.185331 0.126181 0.124546 0.130958 0.103711 0.185111 0.154426 0.156934 0.151009 0.0474384 0.281249 0.0812812 0.0560423 0.199508 0.0665705 0.242323 0.126406 0.101234 0.0338388 0.108596 0.0378349 0.0389033 0.0543058 0.0565802 0.0726091 0.0769392 0.0554054 0.145357 0.209512 0.0988413 0.0423938 0.08198 0.187655 0.0552445 0.0731237 0.0950101 0.143153 0.162602 0.182102 0.0626729 0.0985869 0.182959 0.0817993 0.101473 0.160147 0.123201 0.0845901 0.129218 0.155731 0.0540495 0.0720837 0.107768 0.0612361 0.0601678 0.0644887 0.0533962 0.0871534 0.064862 0.0806751 0.0476142 0.0520737 0.0508904 0.058322 0.0418363 0.0520474 0.0535288 0.0528974 0.07161 0.040404 0.0413282 0.0592066 0.0484652 0.0528381 0.208624 0.110851 0.163299 0.122934 0.1664 0.0924433 0.134644 0.103268 0.129637 0.378359 0.388062 0.500324 0.542969 0.383851 0.388291 0.412541 0.412496 0.46416 0.44919 0.430133 0.4259 0.514393 0.487494 0.470756 0.530789 0.419154 0.434896 0.469923 0.460785 0.517669 0.517731 0.529828 0.474118 0.425394 0.474877 0.514939 0.532916 0.542199 0.519059 0.519579 0.526712 0.52059 0.538022 0.524672 0.527991 0.48963 0.519414 0.522988 0.506777 0.514902 0.514755 0.53623 0.521133 0.524317 0.525772 0.499742 0.510872 0.519889 0.518681 0.237295 0.240862 0.221761 0.226466 0.236692 0.172236 0.174587 0.0528452 0.121649 0.0868513 0.0586808 0.0720757 0.0930262 0.56384 0.597992 0.559973 0.571252 0.591862 0.554507 0.587451 0.544656 0.569555 0.572367 0.597211 0.548519 0.568925 0.583221 0.554159 0.570827 0.585221 0.556293 0.576072 0.536477 0.551841 0.527279 0.546819 0.540669 0.534887 0.550413 0.555683 0.559494 0.559649 0.554627 0.560061 0.544279 0.532351 0.565236 0.547989 0.542409 0.029423 0.0496644 0.0122157 0.0285066 0.0470393 0.0600736 0.0184334 0.0494064 0.0553755 0.0276052 0.039238 0.0551536 0.0316265 0.0441928 0.0125557 0.0247532 0.0126398 0.0426681 0.033137 0.0299514 0.0545032 0.0672583 0.0534157 0.0422119 0.0431351 0.0430914 0.0278624 0.0301765 0.0182405 0.0204501 0.02911 0.0370264 0.0372535 0.0159503 0.0258566 0.0174753 0.0262425 0.0280081 0.0343446 0.0586741 0.056182 0.0389689 0.0459484 0.0284632 0.0434974 0.0290848 0.033422 0.0396142 0.0503014 0.0405365 0.047726 0.0485255 0.0481494 0.0346836 0.0451582 0.0364541 0.0407994 3.72529e-09 3.72529e-09 0.0217032 0.00242789 3.72529e-09 3.72529e-09 0.012788 3.72529e-09 0.0177543 0.00687412 3.72529e-09 3.72529e-09 0.0204298 3.72529e-09 3.72529e-09 0.0146598 0.00355476 3.72529e-09 0.00959299 0.00470023 0.0223453 0.0198247 0.0211598 0.0170556 0.0141147 0.0176223 0.0864435 0.0400485 0.0229311 0.0587206 0.0517399 0.0303892 0.0337679 0.0382221 0.0400239 0.0467604 0.0447603 0.0333494 0.0315646 0.0310033 0.0319416 0.0438549 0.0636146 0.0770136 0.0384751 0.0503893 0.0323047 0.0307417 0.0442591 0.0316244 0.0348977 0.0312046 0.0419707 0.0530625 0.0355667 0.0380234 0.0337913 0.0341064 0.829271 0.809413 0.847753 0.824977 0.819358 0.84154 0.818139 0.846966 0.829294 0.829242 0.860042 0.791588 0.819622 0.833721 0.843071 0.875388 0.885871 0.806399 0.849169 0.861533 0.863405 0.866366 0.839326 0.875234 0.10842 0.0878571 0.0729161 0.0699313 0.0540989 0.0591172 0.868028 0.875899 0.879764 0.874515 0.875621 0.871146 0.872144 0.87778 0.875055 0.87682 0.872861 0.871777 0.869654 0.871528 0.870428 0.871966 0.87299 0.875964 0.873437 0.871488 0.875774 0.873866 0.874985 0.87288 0.0285348 0.0432977 0.034698 0.0349533 0.0327847 0.0246292 0.0317513 0.0295319 0.0298797 0.0305593 0.0219887 0.113616 0.115176 0.0515043 0.051855 0.0783799 0.0855396 0.0872333 0.0573754 0.0742836 0.0608151 0.0841082 0.0488917 0.443548 0.449549 0.474029 0.459948 0.468397 0.4444 0.466334 0.452465 0.441547 0.451187 0.447597 0.463138 0.456466 0.446049 0.457549 0.409076 0.440366 0.455268 0.419839 0.431909 0.438679 0.423832 0.436797 0.434266 0.446116 0.448644 0.427019 0.440897 0.421244 0.432382 0.434895 0.440613 0.0852725 0.0991437 0.0911786 0.119167 0.0975173 0.126399 0.111181 0.10563 0.0765587 0.0847858 0.0858634 0.0944611 0.0964751 0.11091 0.112916 0.0992159 0.112643 0.100404 0.108018 0.0971988 0.109989 0.0893313 0.103137 0.0942211 0.0986062 0.0846433 0.0954956 0.0906946 0.431001 0.481863 0.375744 0.387987 0.402049 0.411902 0.395979 0.391306 0.452221 0.441236 0.425109 0.462315 0.381075 0.397483 0.416879 0.414282 0.40432 0.413042 0.423059 0.448136 0.471269 0.386616 0.373914 0.449517 0.386423 0.426214 0.491084 0.488861 0.490492 0.447184 0.407718 0.468012 0.438985 0.438651 0.466442 0.424516 0.876413 0.863473 0.885292 0.876359 0.880756 0.876272 0.878748 0.872468 0.87727 0.885314 0.881744 0.879749 0.879252 0.880929 0.878666 0.880296 0.879621 0.871082 0.848518 0.87986 0.873351 0.871634 0.875147 0.878879 0.0803981 0.100809 0.0812492 0.0753853 0.0791013 0.0616456 0.0902096 0.0516244 0.0817497 0.0661851 0.112344 0.179656 0.180073 0.149859 0.18028 0.132056 0.198826 0.157099 0.200933 0.174192 0.497511 0.489646 0.496729 0.496482 0.525113 0.523463 0.550123 0.550187 0.496995 0.502339 0.506539 0.508851 0.526419 0.502216 0.52746 0.527051 0.542292 0.51958 0.543958 0.51986 0.489301 0.49388 0.496977 0.517352 0.0700032 0.0565398 0.0416815 0.0361792 0.0510549 0.0481041 0.059659 0.037221 0.0385449 0.0426153 0.0444932 0.0340966 0.653914 0.669785 0.654106 0.66173 0.668047 0.647584 0.664941 0.652732 0.660269 0.724071 0.759788 0.737016 0.804693 0.821614 0.799399 0.657367 0.742076 0.734954 0.749721 0.713947 0.764271 0.763777 0.698648 0.712044 0.774515 0.781592 0.107244 0.107867 0.0803177 0.0991969 0.086765 0.102202 0.0829813 0.0920842 0.0846037 0.0896202 0.0773832 0.0748158 0.0813458 0.064721 0.0598508 0.0862982 0.0658848 0.0929147 0.0796094 0.0711837 0 0.00235523 0.0171697 0.019769 0.00357334 0.00554171 0.015814 0.0178962 0 0.00402123 0.00492283 0.00108726 0.0163597 0.0140237 0.00289355 0.00207018 0.00457026 0.00600738 0.00409306 0.00809048 0.0181491 0.00619997 0.315773 0.335481 0.330059 0.348005 0.378113 0.369147 0.329788 0.341413 0.361382 0.29368 0.330122 0.369399 0.326628 0.307566 0.332489 0.311709 0.34977 0.318782 0.34861 0.308863 0.282305 0.273892 0.295109 0.30519 0.281587 0.301664 0.278381 0.247525 0.283819 0.262907 0.264075 0.238158 0.263523 0.282363 0.116276 0.110107 0.108901 0.113938 0.110519 0.109652 0.114998 0.108386 0.114213 0.0964442 0.101904 0.107572 0.0992096 0.104998 0.105077 0 0 0 0.0136059 0.0316958 0.00960467 0.366419 0.390876 0.323823 0.377035 0.387489 0.358203 0.37988 0.344454 0.359915 0.312434 0.342374 0.355597 0.355284 0.327305 0.366927 0.348609 0.166281 0.185591 0.186212 0.19646 0.185064 0.199351 0.184255 0.191723 0.81503 0.838106 0.827722 0.873359 0.840887 0.883648 0.862308 0.854553 0.789744 0.796056 0.804571 0.803285 0.828361 0.815349 0.832098 0.816929 0.845682 0.030268 0.0236875 0.0634985 0.00709829 0.0233312 0.0222828 0.0350473 0.0455032 0.0494861 0.0586148 0.0192172 1.49012e-08 1.49012e-08 0.00642636 1.49012e-08 1.49012e-08 0.0356981 0.0093537 0.0110036 1.49012e-08 0.0320632 0.0215761 0.0480238 0.0581325 0.0290193 0.0222219 0.0232688 0.0140517 0.0343307 0.0224953 0.0335139 0.0268628 0.0272976 0.0406936 0.0292026 0.0256263 0.0156094 0.00990426 0.0154421 0.00559178 0.436179 0.467345 0.441914 0.45692 0.452316 0.451626 0.460283 0.43703 0.41438 0.417006 0.429373 0.424352 0.517188 0.459707 0.471279 0.482728 0.48293 0.510299 0.511278 0.467722 0.486146 0.483679 0.477317 0.489953 0.502324 0.488192 0.498526 0.498579 0.497444 0.452386 0.438177 0.493405 0.467817 0.469027 0.47743 0.506522 0.859821 0.877059 0.86801 0.0504925 0.082512 0.084104 0 0.0646741 0.0750716 0.0701077 0.0804438 0.0801569 0.0832277 0.0515798 0.0884043 0.0746148 0.0360559 0.0568159 0.0551853 0.076459 0.0683724 0.0636163 0.0675332 0.00790316 1.49012e-08 1.49012e-08 0.00204349 1.49012e-08 0.00923556 1.49012e-08 0.0055268 1.49012e-08 0.00720022 0 0 0.00568982 0 0 1.49012e-08 0 0.00991032 0 0.879294 0.873948 0.871824 0.87869 0.876074 0.870897 0.869794 0.880896 0.873944 0.87444 0.878211 0.873791 0.871177 0.875127 0.874713 0.878669 0.881342 0.878061 0.874254 0.870743 0.876025 0.875459 0.876588 0.873303 0.877639 0.912881 0.932889 0.928258 0.937535 0.918859 0.926795 0.915364 0.927087 0.922101 0.927514 0.923833 0.934203 0.927223 0.932382 0.936887 0.92986 0.921964 0.929716 0.925203 0.92915 0.915287 0.919208 0.923682 0.913523 0.910846 0.917147 0.0867276 0.0882825 0.104712 0.110042 0.116525 0.130683 0.158715 0.127944 0.125436 0.149898 0.175221 0.578548 0.588988 0.709994 0.581345 0.587791 0.60579 0.624353 0.652899 0.663683 0.638672 0.646407 0.715154 0.725256 0.721659 0.749555 0.616535 0.645594 0.676347 0.680063 0.656407 0.671114 0.69157 0.697484 0.749215 0.628432 0.597885 0.707637 0.636803 0.677263 0.712649 0.632954 0.738334 0.691892 0.71005 0.738674 0.67195 0.0478564 0 0.0355693 0.0186776 0.0787985 0.0726391 0.085978 0.106753 0.0641076 0.0538559 0.0766475 0.0827498 0.0839506 0.0589194 0.0980715 0.107052 0.0573942 0.0545506 0.0595912 0.0596266 0.0734224 0.0667521 0.0802868 0.0636722 0.938304 0.912981 0.936934 0.933095 0.936406 0.927602 0.929495 0.922835 0.934201 0.812274 0.814827 0.823436 0.943702 0.943604 0.936213 0.0705245 0.0621308 0.0702867 0.0694164 0.09081 0.0923923 0.127238 0.123738 0.0874443 0.0895864 0.180785 0.106257 0.110299 0.166481 0.0946964 0.0905756 0.117465 0.120629 0.155676 0.119407 0.0903311 0.0781397 0.107049 0.0990549 0.141475 0.488459 0.494694 0.444256 0.440623 0.479717 0.495272 0.484665 0.447414 0.619486 0.631614 0.722495 0.718749 0.613688 0.636833 0.720941 0.722419 0.630888 0.628702 0.715169 0.720577 0.707071 0.612284 0.705954 0.0928155 0.0532512 0.05499 0.067295 0.074224 0.0818216 0.087744 0.0690565 0.075621 0.0861969 0.0755592 0.0883504 0.0904982 0.0919771 0.078866 0.0722847 0.0819093 0.0844989 0.0741053 0.105386 0.86959 0.874251 0.842825 0.855466 0.893509 0.892432 0.869037 0.912946 0.915257 0.910511 0.872535 0.89372 0.881169 0.887932 0.84896 0.902094 0.827231 0.865585 0.859491 0.8381 0.878863 0.90489 0.889963 0.887014 0.836674 0.907108 0.89223 0.874484 0.100298 0.0969369 0.0878442 0.0889159 0.0915454 0.103296 0.0890055 0.0927839 0.0962607 0.0817281 0.0890745 0.0949903 0.320547 0.364937 0.295817 0.336535 0.35168 0.307566 0.34575 0.302345 0.327373 0.299898 0.327732 0.301402 0.280951 0.296211 0.289584 0.326723 0.31381 0.294923 0.31828 0.281917 0.265955 0.261816 0.288528 0.286061 0.274657 0.277855 0.0894895 0.091818 0.0787791 0.581433 0.533842 0.562618 0.572616 0.557692 0.545689 0.56433 0.562223 0.568603 0.549145 0.563993 0.530524 0.535067 0.550896 0.545169 0.862934 0.868941 0.840391 0.847955 0.627751 0.672383 0.731017 0.743084 0.658507 0.637838 0.660595 0.627654 0.573667 0.566958 0.556399 0.563613 0.562406 0.570977 0.559163 0.56049 0.564443 0.547068 0.551428 0.565538 0.0422512 0.0522999 0.0471271 0.538623 0.571002 0.582141 0.578477 0.567362 0.569025 0.579834 0.56349 0.569739 0.573375 0.572179 0.536126 0.545385 0.617712 0.620419 0.510514 0.518115 0.558402 0.555957 0.546602 0.517136 0.579474 0.587166 0.59833 0.550147 0.531399 0.513357 0.600673 0.571059 0.576597 0.550113 0.530404 0.52825 0.3178 0.365103 0.353618 0.36372 0.313187 0.356866 0.340435 0.358415 0.569418 0.571025 0.581578 0.581175 0.573499 0.573128 0.575249 0.571139 0.572492 0.564703 0.57663 0.564759 0.105906 0.0948451 0.111785 0.103911 0.0979431 1.49012e-08 1.49012e-08 1.49012e-08 0 0 0 0.0642744 0.0549425 0.102105 0.109009 0.0846539 0.0881484 0.101238 0.221859 0.231362 0.263236 0.228102 0.249377 0.204298 0.179895 0.24803 0.203854 0.227145 0.172912 0.190709 0.205173 0.172995 0.163796 0.187114 0.204701 0.188873 0.210149 0.179467 0.138468 0.156981 0.154955 0.166619 0.892977 0.898818 0.915504 0.918572 0.89791 0.911145 0.912803 0.902989 0.889985 0.902358 0.906092 0.907112 0.0187868 0.0456357 0.0304869 0.0298405 0.0339654 0.0408469 0.02158 0.0478156 0.0198025 0.0369309 0.0230211 0.0315994 0.0277793 0.0149759 0.013136 0.019631 0.0383177 0.0295144 0.0217907 0.0303911 0.0560088 0.0506632 0.0380846 0.0411902 0.0279294 0.0395967 0.0131302 0.0312133 0.021885 0.0236683 0.0380609 0.0334702 0.0314223 0.0220492 0.019466 0.0446871 0.0568674 0.0172287 0.0383589 0.0367966 0.0013935 3.72529e-09 0 0.0258563 3.72529e-09 3.72529e-09 0.00211168 3.72529e-09 0.00202174 0 0.0016843 3.72529e-09 3.72529e-09 0.00397795 0 3.72529e-09 3.72529e-09 3.72529e-09 3.72529e-09 3.72529e-09 0.00520506 0.00303063 0.00200667 0.00386483 0.00647956 0.00871996 0.00836878 0.0026473 0.0049774 0.00460385 0.0263088 0.0229504 0.0230266 0.011743 0.00632136 0.0142717 0.00816586 0.00773295 0.00857909 0.00816271 0.774671 0.790792 0.639173 0.64651 0.850602 0.873149 0.602769 0.828258 0.843916 0.698871 0.781797 0.862684 0.739997 0.753792 0.586428 0.695718 0.619281 0.770101 0.596988 0.636874 0.726974 0.798827 0.840671 0.669935 0.578086 0.814763 0.674182 0.706983 0.527619 0.523575 0.533965 0.529584 0.526123 0.583415 0.602679 0.533571 0.530264 0.577069 0.596178 0.534388 0.276947 0.253131 0.258244 0.277085 0.39176 0.384972 0.376164 0.357922 0.344632 0.327242 0.321602 0.352352 0.305048 0.298284 0.327434 0.0501305 0.0068627 0 0.0242995 0 0.0373558 0.0291608 0.00402251 0.0124502 3.72529e-09 0.0458096 0.0498638 0.0524107 0.0321911 0.035352 0.0234682 0.0251511 0.0277945 0.0166311 0.0344706 0.0261883 0.0185284 0.0186392 0.0265068 0.931504 0.923621 0.934434 0.938877 0.930997 0.934656 0.936283 0.930129 0.930809 0.936408 0.922091 0.933895 0.927467 0.917674 0.914417 0.926 0.926332 0.930254 0.924546 0.93182 1.49012e-08 1.49012e-08 0.0312808 0.0620279 1.49012e-08 0.0906257 1.49012e-08 0.0549776 0.046561 0.876937 0.882011 0.883299 0.884288 0.880494 0.868137 0.878682 0.860652 0.0235008 0.0162044 0.0236484 0.0555275 0.0239055 0.0160249 0.0262312 0.0224366 0.0253902 0.0178226 0.0232235 0.0276081 0.0284767 0.0281585 0.0385845 0.0383653 0.0171254 0.0304954 0.026649 0.0237492 0.017104 0.0201409 0.0222329 0.0131958 0.0267963 0.014009 0.0187722 0.0264883 0.0226122 0.015934 0.0383402 0.0223401 0.0302418 0.00642671 0.0136748 0.0142522 0.00829845 0.015555 0.0145308 0.00689404 0.859754 0.88767 0.911103 0.873189 0.886602 0.889963 0.89385 0.905714 0.902 0.896998 0.90349 0.918703 0.918341 0.919055 0.925246 0.895458 0.904144 0.910271 0.911137 0.901605 0.879406 0.909962 0.0122296 2.32831e-10 1.49012e-08 0 0.00420491 0 0.0178408 0 0.00879264 0 0 0 0 0 0 2.32831e-10 0.00693245 0 0 0 0.0121487 0.0128252 0.0112687 0.00736585 0.0136898 0.00171195 0.0133293 0.00690393 0.0208346 0.0141369 0.0220828 0.0119282 0.00828342 0.0152575 0.0190823 0.0107399 0.00407963 0 0.00389705 0 0 0 0 0 0 0 0 0 0 0 0 0 0 0 0 0 0.00316654 0.0018647 0 0.00798008 0.00889407 0.00352914 1.49012e-08 0.10748 1.49012e-08 0.0708231 0.0567695 0.0270718 0.0275628 0.0207449 0.0170227 0.0238884 0.0285959 0.020056 0.0231995 0.0186119 0.0273318 0.0101381 0.0184054 0.0240412 0.0182867 0.0128767 0.0190043 0.0279013 0.0104403 0.0299897 0.0163945 0.0237369 0.0202432 0.0179628 0.0104054 0.090726 0.0259332 0.0319867 0.0280226 0.0500646 0.0439632 0.0190458 0.021873 0.0552673 0.020225 0.0231174 0.0413002 0.0304585 0.0204289 0.0366527 0.0364855 0.0637022 0.0691195 0.0771565 0.0491176 0.0349662 0.0429972 0.0306149 0.0528195 0.0447239 0.0308203 0.0269386 0.0312537 0.0311397 0.022409 0.0183998 0.0331925 0.0443676 0.0211949 0.0353362 0.0324024 0.0350278 0.0205521 0.0579452 0.0353367 0.022396 0.0329683 0.0255969 0.0503396 0.0376548 0.0513941 0.0361076 0.0382561 1.49012e-08 1.49012e-08 1.49012e-08 1.49012e-08 1.49012e-08 0.377295 0.412674 0.451691 0.404892 0.425175 0.416381 0.449546 0.392249 0.40261 0.419768 0.387802 0.434759 0.434288 0.403858 0.423248 0.80523 0.553453 0.562931 0.670246 0.665921 0.785587 0.754896 0.567171 0.6382 0.649129 0.755099 