# vtk DataFile Version 5.1
vtk output
ASCII

DATASET UNSTRUCTURED_GRID
POINTS 7842 float
-0.302227 0.39702 -0.0252023
-0.220112 0.482117 0.111173
-0.169352 0.542406 -0.0666927
-0.269116 0.44313 0.0252107
-0.241843 0.474531 0.0666275
-0.267168 0.461785 -0.032648
-0.20071 0.534997 0.0494581
-0.222867 0.511791 -0.0489021
-0.18927 0.550576 -0.0120422
-0.235019 0.504714 0.0086691
-0.132413 0.488461 -0.0168392
-0.143281 0.510132 -0.0361364
-0.154043 0.528892 -0.0523743
-0.416994 0.103299 0.0343923
-0.46451 0.128972 0.0212508
-0.457608 0.145937 0.151019
-0.494459 0.134789 -0.0476458
-0.440533 0.108171 0.0294982
-0.455373 0.117862 0.0261429
-0.431267 0.1279 0.0649446
-0.462509 0.127348 0.0905808
-0.44632 0.137119 0.119173
-0.465044 0.138302 0.130087
-0.441572 0.12041 -0.00727515
-0.459498 0.119016 0.00129762
-0.473328 0.151184 0.0736494
-0.468194 0.131269 -0.0353845
-0.479535 0.121053 -0.0308343
-0.482656 0.143114 0.00543359
-0.447458 0.12456 0.0822043
-0.453889 0.119225 -0.00248981
-0.453755 0.140749 0.0247245
-0.467619 0.133243 0.0465402
-0.436588 0.164759 -0.0377942
-0.449339 0.154395 0.0985901
-0.441811 0.158124 0.0237958
-0.430307 0.130143 -0.0210604
-0.421246 0.112514 0.00431964
-0.436089 0.142251 0.0478109
-0.456489 0.157934 -0.0441476
-0.473239 0.151971 -0.0463477
-0.451235 0.132138 -0.0287643
-0.462347 0.154077 0.0188802
-0.346412 0.0746865 -0.351902
-0.381452 0.101243 -0.376893
-0.326838 0.0853705 -0.232736
-0.336242 0.0843806 -0.439674
-0.35997 0.0868948 -0.358617
-0.37354 0.0948273 -0.369061
-0.340944 0.0758873 -0.309684
-0.334941 0.100014 -0.324083
-0.336796 0.0807781 -0.272284
-0.322076 0.0925561 -0.276898
-0.339843 0.07888 -0.377129
-0.364816 0.090127 -0.402363
-0.31883 0.0736669 -0.290205
-0.337886 0.0812847 -0.411599
-0.346894 0.0876698 -0.423071
-0.316303 0.0751932 -0.355259
-0.338138 0.088633 -0.316895
-0.352445 0.0870259 -0.391799
-0.32762 0.0770742 -0.334032
-0.32663 0.0867492 -0.342165
-0.357914 0.0490264 -0.213786
-0.324054 0.0580428 -0.404082
-0.345817 0.0624815 -0.218759
-0.338511 0.0728401 -0.228223
-0.340934 0.0502721 -0.263367
-0.327783 0.0634219 -0.285016
-0.325445 0.0507333 -0.342895
-0.320219 0.0573927 -0.342656
-0.354975 0.0563213 -0.25314
-0.331071 0.0649328 -0.388125
-0.348454 0.0644206 -0.310292
-0.337706 0.0690948 -0.366367
-0.331525 0.057491 -0.282953
-0.345325 0.0698761 -0.269959
-0.33702 0.0582028 -0.320532
-0.330747 0.0661284 -0.325597
-0.327077 0.0688848 -0.417889
-0.331562 0.0772209 -0.429868
-0.333005 0.0738159 -0.398452
-0.318954 0.0666518 -0.348912
-0.0479636 0.0909681 -0.210224
-0.033481 0.0732079 -0.174921
-0.0172055 0.0668184 -0.167981
-0.0398153 0.0831904 -0.190073
-0.0366458 0.0769949 -0.177305
-0.0320012 0.0815104 -0.188674
-0.0355953 0.0693811 -0.170733
-0.023563 0.0711424 -0.176386
-0.030368 0.0659484 -0.166181
-0.0337567 0.0736486 -0.177463
-0.0575741 0.0720732 -0.17252
-0.0520745 0.0768963 -0.17279
-0.0417108 0.0780407 -0.174486
-0.0509393 0.0682725 -0.182452
-0.0327706 0.0662675 -0.177204
-0.0402956 0.0682204 -0.177071
-0.00998856 0.0674003 -0.166017
-0.0195356 0.068566 -0.177002
-0.0183289 0.0678783 -0.175278
-0.0352619 0.0689065 -0.184157
-0.0539875 0.0675056 -0.18597
-0.0373253 0.0676472 -0.182369
-0.303573 0.163385 -0.166747
-0.292584 0.200949 -0.185237
-0.303832 0.0722602 -0.165185
-0.301855 0.178855 -0.17618
-0.299037 0.187594 -0.182727
-0.296987 0.133736 -0.158577
-0.296763 0.152655 -0.172062
-0.301435 0.0973197 -0.161199
-0.294943 0.109058 -0.162384
-0.311615 0.127548 -0.178793
-0.300238 0.137219 -0.199336
-0.316297 0.0725204 -0.192465
-0.327032 0.0923537 -0.20566
-0.314635 0.094512 -0.208583
-0.322683 0.0768698 -0.214931
-0.296909 0.141433 -0.166402
-0.308447 0.134553 -0.190106
-0.316168 0.0959262 -0.183594
-0.310561 0.100415 -0.189371
-0.315788 0.0612967 -0.161514
-0.311778 0.064445 -0.162969
-0.308233 0.0678701 -0.165498
-0.331268 0.0531278 -0.180761
-0.321456 0.0655422 -0.184323
-0.343141 0.0484678 -0.19947
-0.335061 0.05816 -0.200659
-0.306571 0.0995084 -0.154845
-0.330363 0.0804501 -0.18886
-0.302336 0.136685 -0.155861
-0.309506 0.123097 -0.168738
-0.326779 0.0594754 -0.184401
-0.302516 0.102242 -0.157634
-0.317882 0.0881218 -0.17088
-0.31355 0.0913875 -0.173588
-0.327145 0.0919424 -0.195076
-0.330151 0.0678368 -0.207953
-0.0060518 0.638062 0.0415747
-0.135871 0.582538 0.0843622
-0.0655493 0.62765 0.0604009
-0.0671705 0.624625 0.0049189
-0.12444 0.590372 -0.0324881
-0.128228 0.598113 0.0232283
-0.04609 0.595263 0.0280064
-0.0857825 0.544028 0.0117905
-0.102759 0.572335 -0.011942
-0.349783 0.229447 -0.103917
-0.415545 0.230021 -0.109516
-0.351518 0.1982 -0.218138
-0.369539 0.234812 -0.111716
-0.389523 0.237339 -0.113065
-0.335038 0.218065 -0.157029
-0.376422 0.241286 -0.14645
-0.311741 0.204811 -0.179657
-0.334128 0.228824 -0.1758
-0.366982 0.21816 -0.153418
-0.396919 0.235182 -0.159051
-0.314253 0.193955 -0.201824
-0.358318 0.210997 -0.193396
-0.371512 0.228826 -0.197912
-0.331018 0.192387 -0.212552
-0.351713 0.231011 -0.156807
-0.379656 0.228022 -0.159376
-0.338155 0.209452 -0.186342
-0.350383 0.229542 -0.19127
-0.340349 0.179942 -0.166984
-0.314211 0.170206 -0.163158
-0.311302 0.186906 -0.187462
-0.324623 0.174438 -0.16072
-0.32465 0.182684 -0.175618
-0.309505 0.188023 -0.157173
-0.342241 0.192349 -0.152842
-0.325973 0.21583 -0.140133
-0.348662 0.209692 -0.133142
-0.314237 0.180711 -0.175318
-0.313548 0.201225 -0.167191
-0.324523 0.191718 -0.152623
-0.3261 0.198629 -0.169399
-0.347105 0.188061 -0.188511
-0.349646 0.192008 -0.205836
-0.355875 0.205469 -0.172006
-0.328738 0.189994 -0.194176
-0.0619743 0.0232496 0.140796
-0.0801192 0.0482871 0.142984
-0.0484778 0.0337191 0.0721781
0.0185562 0.141579 0.122225
-0.0767059 0.0316185 0.141896
-0.0828483 0.0404552 0.14345
-0.0593372 0.0273727 0.129746
-0.0740112 0.0499377 0.143664
-0.0533756 0.0331181 0.100848
-0.0600989 0.0406025 0.0993372
-0.0311145 0.0388762 0.125226
-0.0551005 0.0316412 0.144339
-0.0247942 -0.0216499 0.0728085
0.00250055 0.0750239 0.116969
-0.0112461 0.052399 0.126881
0.00913081 0.0230918 0.0973452
-0.0698393 0.0384917 0.137781
-0.0456191 0.0333948 0.135031
-0.0216128 0.0115454 0.107902
-0.0416911 0.00185622 0.115707
-0.0316322 0.0300142 0.0968949
0.014241 0.104972 0.0959514
-0.0373935 0.0272415 0.0901019
-0.0439222 0.0314314 0.0843016
-0.0159755 0.0282751 0.0998397
-0.028526 0.00646741 0.0777345
0.00922447 0.0371849 0.0960474
0.00426141 0.0334148 0.0903282
-0.0362331 0.026831 0.113438
-0.00960978 0.0420593 0.106093
-0.0539946 0.0234223 0.129517
-0.0413888 0.0218276 0.120516
-0.0219839 0.0197411 0.0872505
-0.0462221 0.0288622 0.111293
-0.0215346 0.0173887 0.108219
-0.026754 0.0171523 0.104968
0.01463 0.124708 0.10834
0.01665 0.132967 0.115948
-0.0051883 0.0602134 0.111954
0.0058588 0.0299892 0.0942372
-0.205372 0.0538334 -0.11783
-0.195706 0.0335377 -0.161198
-0.0225202 0.0401913 -0.271767
-0.0639508 -0.0449022 -0.17254
-0.208301 0.0525657 -0.132673
-0.200245 0.0445929 -0.145418
-0.134465 0.00988073 -0.162885
-0.123322 0.00358109 -0.187434
-0.0612072 0.00711269 -0.219959
-0.0604696 -0.000909471 -0.225244
-0.169852 0.0139112 -0.134031
-0.150911 -0.00352629 -0.162861
-0.024289 0.00271501 -0.244931
-0.115073 -0.0256861 -0.155126
-0.106761 -0.0317528 -0.167842
-0.0373528 -0.0238881 -0.210136
-0.127803 0.00744138 -0.176519
-0.15928 0.0039718 -0.149842
-0.0871779 -0.0159239 -0.185643
-0.0818912 -0.0178705 -0.198363
-0.0269475 0.0293854 -0.245284
-0.105839 -0.0196451 -0.14407
-0.0273311 0.0310996 -0.252204
-0.0233979 0.0373651 -0.2649
-0.0473925 0.00300475 -0.213077
-0.0320476 0.00544227 -0.237132
-0.074111 -0.0131297 -0.176748
-0.0640304 -0.0181298 -0.188007
-0.0753626 0.0071613 -0.196378
-0.14004 0.00215282 -0.134932
-0.139254 0.0146013 -0.148106
-0.173453 0.0280446 -0.121911
-0.0412011 0.00329511 -0.223396
-0.0744834 0.00633183 -0.203367
-0.106145 -0.00127162 -0.16276
-0.0928684 -0.00770965 -0.18004
-0.0967322 -0.0293046 -0.153543
-0.0754271 -0.0382854 -0.165805
-0.131109 -0.00999582 -0.145409
-0.04885 -0.0204583 -0.202306
-0.37559 0.0757576 -0.497611
-0.353289 0.0834796 -0.401246
-0.388359 0.0751831 -0.432748
-0.359107 0.0897568 -0.475201
-0.366342 0.0795235 -0.457153
-0.383389 0.0694073 -0.473655
-0.373151 0.0831994 -0.494412
-0.370807 0.083044 -0.416709
-0.355587 0.0850842 -0.43725
-0.371329 0.0848945 -0.455521
-0.341201 0.0792942 -0.444168
-0.362261 0.0839471 -0.480628
-0.349819 0.0856972 -0.459657
-0.345308 0.0804868 -0.425766
-0.348828 0.078134 -0.468129
-0.358801 0.0791224 -0.476744
-0.367663 0.078787 -0.488933
-0.348412 0.0785242 -0.429748
-0.346714 0.0796245 -0.387508
-0.342037 0.0763737 -0.450582
-0.333368 0.0701291 -0.427199
-0.355413 0.0803235 -0.438433
-0.350676 0.0813221 -0.463137
-0.339404 0.0748711 -0.410022
-0.390496 0.175608 0.101136
-0.430616 0.188669 0.164629
-0.272869 0.103158 0.249535
-0.317155 0.150239 0.152612
-0.405507 0.181122 0.145553
-0.417293 0.185002 0.165828
-0.378079 0.149883 0.200508
-0.402221 0.16498 0.24047
-0.335876 0.117773 0.250355
-0.348287 0.125699 0.272177
-0.358049 0.182476 0.148298
-0.382903 0.203707 0.190975
-0.301744 0.145823 0.265597
-0.331622 0.17968 0.160779
-0.341772 0.199134 0.18988
-0.331316 0.177296 0.229457
-0.386567 0.157755 0.228298
-0.366476 0.19307 0.180034
-0.352862 0.164673 0.216939
-0.364105 0.177551 0.245654
-0.329268 0.162334 0.103245
-0.330409 0.167796 0.119351
-0.323592 0.157996 0.139186
-0.353694 0.162609 0.105439
-0.371446 0.164972 0.112441
-0.338162 0.175322 0.137663
-0.314418 0.00827022 -0.321825
-0.275747 -0.00414431 -0.3335
-0.279342 -0.0276693 -0.408122
-0.293282 0.0453116 -0.439819
-0.298215 0.00558536 -0.324112
-0.286852 -0.000498949 -0.331503
-0.302465 -0.00814942 -0.345122
-0.281916 -0.0127339 -0.357893
-0.29188 -0.0192005 -0.3799
-0.283622 -0.0209608 -0.381958
-0.301473 0.00718399 -0.355985
-0.283579 0.00861779 -0.361236
-0.280662 -0.00154009 -0.427997
-0.294909 0.024667 -0.404114
-0.288641 0.0242915 -0.396204
-0.28502 0.0252561 -0.438814
-0.290946 -0.0108973 -0.352974
-0.291969 0.00815419 -0.360478
[...]
POINT_DATA 7842
SCALARS Norm_u float 1
LOOKUP_TABLE default
0.306963 0.265465 0.27439 0.289555 0.274723 0.293421 0.274979 0.283832 0.284969 0.287258 0.224416 0.246255 0.263268 0.503876 0.49523 0.510094 0.595515 0.503537 0.499898 0.504267 0.505374 0.507207 0.505884 0.530271 0.534837 0.527066 0.564651 0.569483 0.560736 0.505227 0.533418 0.529927 0.531933 0.531767 0.513998 0.524953 0.530065 0.519022 0.514041 0.554469 0.573107 0.545142 0.539959 0.805231 0.805601 0.757935 0.83698 0.801486 0.802621 0.788336 0.79082 0.770971 0.777089 0.818394 0.82632 0.791726 0.829991 0.833566 0.81622 0.788955 0.821098 0.804343 0.806642 0.746707 0.837187 0.75147 0.755809 0.77364 0.787935 0.814319 0.815573 0.76184 0.827428 0.787679 0.816064 0.785486 0.769771 0.79873 0.802853 0.836064 0.83589 0.827741 0.815617 0.860826 0.882528 0.907164 0.879338 0.886797 0.88297 0.892439 0.900736 0.902 0.894205 0.854223 0.857542 0.867895 0.876162 0.89722 0.886718 0.893861 0.89642 0.902702 0.883115 0.870225 0.888391 0.601318 0.603366 0.705542 0.600508 0.604541 0.639801 0.643098 0.682788 0.678372 0.660303 0.677915 0.729069 0.723811 0.733289 0.746552 0.644552 0.666044 0.702209 0.70809 0.707599 0.707896 0.70798 0.726929 0.726479 0.740543 0.741508 0.66703 0.711926 0.625958 0.654 0.729057 0.671305 0.691396 0.695152 0.709947 0.74408 0.241897 0.248548 0.246651 0.264799 0.277862 0.268399 0.236808 0.225506 0.253968 0.515832 0.563163 0.568366 0.531958 0.54418 0.551942 0.551199 0.583515 0.567603 0.538854 0.55502 0.606463 0.556216 0.553464 0.595707 0.552822 0.545779 0.568242 0.564884 0.555677 0.584379 0.598545 0.570434 0.578778 0.57411 0.545399 0.54073 0.528183 0.589562 0.573888 0.558529 0.567276 0.558323 0.566554 0.54829 0.585063 0.0698117 0.0665592 0.171631 0.0990699 0.0569133 0.0537837 0.0805808 0.0779269 0.126447 0.135602 0.092693 0.0831575 0.18487 0.102868 0.106655 0.142962 0.0749167 0.0870916 0.124796 0.128296 0.119476 0.080517 0.135922 0.149286 0.104652 0.153831 0.0994182 0.112861 0.0967682 0.0980638 0.0754299 0.0884589 0.127438 0.104938 0.103278 0.112457 0.0861752 0.0922391 0.0985097 0.125845 0.732053 0.768073 0.891076 0.87197 0.735409 0.750438 0.820975 0.840291 0.880538 0.887933 0.781876 0.814362 0.896699 0.839986 0.851076 0.888546 0.830797 0.799547 0.863048 0.872492 0.88463 0.842888 0.887563 0.890447 0.880317 0.891252 0.864448 0.872843 0.86641 0.808463 0.810475 0.768291 0.885155 0.869041 0.841096 0.856148 0.850651 0.864815 0.821095 0.881934 0.875303 0.824146 0.858744 0.851558 0.854806 0.879228 0.868217 0.835885 0.84013 0.855037 0.83884 0.855673 0.843704 0.834669 0.84683 0.855062 0.864233 0.83622 0.817599 0.841434 0.836789 0.841946 0.846304 0.82914 0.503267 0.52061 0.474689 0.511584 0.505987 0.510785 0.486865 0.498176 0.484433 0.492447 0.488323 0.501745 0.466193 0.490807 0.490676 0.463492 0.491469 0.494491 0.473276 0.480749 0.463617 0.475338 0.496373 0.473851 0.48486 0.478832 0.814861 0.830261 0.879728 0.860109 0.818501 0.82661 0.838555 0.847145 0.863227 0.864042 0.838686 0.842601 0.873307 0.85421 0.853374 0.864264 0.844073 0.841303 0.85747 0.858994 0.863697 0.869226 0.874963 0.862267 0.862012 0.851937 0.831985 0.867117 0.855636 0.852112 0.430504 0.297774 0.344501 0.405681 0.358695 0.404804 0.311031 0.372916 0.325805 0.363695 0.383035 0.308322 0.335923 0.362577 0.356023 0.329817 0.797188 0.826697 0.713605 0.806861 0.819031 0.807184 0.825592 0.820232 0.827711 0.775663 0.793295 0.795095 0.744156 0.756605 0.761303 0.81757 0.783241 0.781873 0.792104 0.680849 0.778007 0.794669 0.732194 0.742612 0.805462 0.731975 0.800483 0.77187 0.780508 0.811458 0.770362 0.780418 0.69482 0.708755 0.743719 0.754174 0.231667 0.21718 0.278409 0.242904 0.22723 0.263846 0.239957 0.24876 0.229013 0.261692 0.408017 0.435917 0.36391 0.423523 0.433029 0.40044 0.423741 0.383222 0.401762 0.383772 0.422526 0.354803 0.352918 0.379347 0.33364 0.414683 0.404704 0.368522 0.395093 0.294307 0.326692 0.346885 0.304413 0.309989 0.334383 0.375926 0.329931 0.36606 0.339556 0.0219584 0.0596257 0.172917 0.148562 0.0357999 0.0442763 0.060337 0.0752297 0.118578 0.117575 0.0689379 0.0900553 0.146553 0.123318 0.140045 0.140482 0.0679095 0.0795567 0.111482 0.123174 0.735731 0.732897 0.736149 0.736594 0.76391 0.780137 0.80082 0.806473 0.723973 0.727156 0.718177 0.72024 0.772458 0.727654 0.763156 0.768131 0.774494 0.749958 0.783797 0.745919 0.698567 0.720069 0.711383 0.742865 0.23496 0.283952 0.257894 0.245524 0.254512 0.266031 0.187986 0.207269 0.221359 0.206496 0.232678 0.227631 0.0826943 0.277148 0.270354 0.214526 0.149808 0.164333 0.126759 0.273011 0.241844 0.239816 0.10253 0.0643665 0.135271 0.0913854 0.0754158 0.111476 0.078827 0.124749 0.106826 0.097496 0.0958246 0.124661 0.0828864 0.0697416 0.124034 0.0837992 0.141789 0.116467 0.10532 0.126372 0.125725 0.10869 0.108707 0.0910861 0.192031 0.104902 0.108553 0.153152 0.20346 0.182694 0.229329 0.13282 0.121542 0.21511 0.150463 0.151622 0.186999 0.178127 0.129073 0.165901 0.193677 0.277138 0.192222 0.157334 0.142241 0.239293 0.231563 0.220517 0.177997 0.174797 0.153737 0.152197 0.21547 0.151467 0.187948 0.205719 0.231339 0.253088 0.210657 0.185314 0.160504 0.123845 0.222861 0.179002 0.164872 0.293568 0.120098 0.214426 0.135041 0.23137 0.107192 0.170409 0.11905 0.150689 0.463978 0.530223 0.681987 0.722438 0.490604 0.513431 0.51777 0.54987 0.619035 0.609182 0.548832 0.563013 0.696714 0.653166 0.640732 0.711219 0.547584 0.574061 0.624588 0.624263 0.665965 0.685144 0.708539 0.615431 0.534473 0.625496 0.625965 0.70736 0.718502 0.714819 0.662357 0.677324 0.682805 0.712948 0.701447 0.716929 0.564702 0.634308 0.696993 0.593604 0.627333 0.632488 0.701696 0.661715 0.661791 0.686004 0.584064 0.613216 0.654857 0.656109 0.340032 0.335325 0.30791 0.307997 0.331095 0.235205 0.237825 0.224921 0.277254 0.250978 0.165266 0.104337 0.187045 0.749962 0.759886 0.760439 0.753967 0.762149 0.743093 0.750357 0.733348 0.743175 0.751677 0.755313 0.732071 0.75298 0.750812 0.745237 0.747796 0.754954 0.743853 0.746062 0.713145 0.74372 0.699672 0.733008 0.727089 0.721944 0.736846 0.740991 0.750329 0.756298 0.738499 0.744741 0.716785 0.692284 0.748923 0.734363 0.720986 0.172442 0.217257 0.128359 0.163418 0.205059 0.248019 0.161941 0.213001 0.231347 0.202085 0.185774 0.227321 0.184168 0.214942 0.104715 0.155552 0.120472 0.078564 0.178288 0.125873 0.0704931 0.0735735 0.112163 0.0469316 0.0529448 0.0601794 0.0990373 0.0910835 0.0991715 0.0981852 0.0951894 0.147805 0.15825 0.0946208 0.0958555 0.0986007 0.124344 0.129796 0.0937375 0.112356 0.193516 0.104153 0.109585 0.109856 0.120594 0.134342 0.136953 0.140326 0.158877 0.176518 0.180357 0.189654 0.193494 0.119425 0.154525 0.1537 0.164656 3.72529e-09 3.72529e-09 0.01301 0.00259447 3.72529e-09 3.72529e-09 0.00584724 3.72529e-09 0.00883169 0.00305661 3.72529e-09 3.72529e-09 0.0113547 3.72529e-09 3.72529e-09 0.00864293 0.00204197 3.72529e-09 0.0048597 0.000605996 0.0385411 0.0369303 0.0246195 0.0207023 0.00652504 0.0167526 0.109127 0.0620788 0.0916899 0.0683172 0.0949147 0.0420186 0.0504687 0.0847866 0.0824619 0.095628 0.104333 0.0739872 0.0438838 0.0371545 0.057483 0.0558938 0.0711954 0.0946233 0.019816 0.0641419 0.0572205 0.0551012 0.0478523 0.0548291 0.0673601 0.0515257 0.0387193 0.0502624 0.0245387 0.0232175 0.0625849 0.0801153 0.842157 0.834988 0.824349 0.83671 0.831976 0.842457 0.817159 0.835527 0.813841 0.827022 0.872138 0.829726 0.845899 0.855375 0.859123 0.876963 0.87922 0.838716 0.85835 0.862136 0.8714 0.86772 0.853868 0.873532 0.189496 0.167195 0.144558 0.183419 0.190312 0.172585 0.869085 0.84117 0.850085 0.852461 0.861017 0.876759 0.876882 0.844156 0.854085 0.865913 0.847864 0.849898 0.857125 0.846313 0.861161 0.845476 0.852846 0.844255 0.840256 0.851206 0.84573 0.843041 0.846378 0.863538 0.0670529 0.0936944 0.0408321 0.0696281 0.0820944 0.0940774 0.105195 0.0363916 0.0716353 0.0395515 0.0932718 0.15709 0.127629 0.112922 0.149231 0.12044 0.107457 0.132696 0.0855869 0.0835005 0.103428 0.0999638 0.0850507 0.511674 0.528712 0.554445 0.534406 0.53292 0.535469 0.564631 0.507301 0.523019 0.538957 0.50949 0.540937 0.550517 0.52016 0.529177 0.483674 0.499796 0.52151 0.486575 0.496258 0.509789 0.510715 0.518427 0.526631 0.511901 0.52465 0.503815 0.518121 0.491032 0.499494 0.518582 0.502016 0.19903 0.146181 0.177814 0.165269 0.189689 0.199638 0.204175 0.183053 0.147404 0.161265 0.180308 0.138464 0.174237 0.150974 0.167907 0.156428 0.188133 0.169032 0.228457 0.19999 0.221949 0.209508 0.190376 0.196201 0.201219 0.17774 0.183646 0.191089 0.357872 0.573842 0.43771 0.465833 0.389885 0.395567 0.471993 0.501141 0.420398 0.521209 0.505258 0.494253 0.448029 0.48702 0.450152 0.455118 0.389799 0.369803 0.362687 0.467553 0.533674 0.422146 0.44453 0.444345 0.402213 0.485299 0.607305 0.586426 0.588208 0.55773 0.498485 0.554051 0.481067 0.530273 0.532521 0.501699 0.899599 0.877514 0.899517 0.897024 0.913552 0.903058 0.904091 0.889618 0.897647 0.908521 0.886693 0.890859 0.894485 0.886511 0.899783 0.888333 0.896464 0.879543 0.865913 0.891905 0.884726 0.878942 0.889053 0.900724 0.223135 0.125288 0.143855 0.192265 0.161794 0.214622 0.119439 0.190649 0.115748 0.16684 0.116143 0.225072 0.194875 0.136111 0.190776 0.123183 0.205122 0.163324 0.204363 0.178003 0.578268 0.564334 0.575076 0.572544 0.658105 0.664047 0.724039 0.727721 0.585812 0.599864 0.60944 0.619846 0.663487 0.59764 0.673208 0.674166 0.70234 0.637474 0.708045 0.648925 0.572296 0.579505 0.585379 0.640237 0.10322 0.0877054 0.050587 0.0772623 0.063814 0.0665551 0.0834485 0.0302593 0.038143 0.0478847 0.0529458 0.0238973 0.753484 0.739689 0.740712 0.749595 0.746082 0.748547 0.73995 0.743732 0.740012 0.767077 0.766919 0.765612 0.789098 0.789348 0.784641 0.744872 0.767181 0.769285 0.76635 0.765709 0.786515 0.788515 0.768946 0.768003 0.784656 0.786049 0.185887 0.214686 0.20678 0.213523 0.231349 0.2202 0.2224 0.241222 0.219748 0.239228 0.188227 0.166806 0.187066 0.183362 0.188748 0.2065 0.175399 0.193182 0.170908 0.179576 0 0.00453155 0.0524469 0.0480123 0.0230211 0.0287785 0.0703043 0.0597302 0 0.0404947 0.0463182 0.00301636 0.0471987 0.062361 0.0338999 0.0366237 0.0284061 0.0131736 0.00531989 0.0438973 0.0622622 0.0426104 0.368872 0.440378 0.398359 0.407384 0.463437 0.42927 0.399758 0.43243 0.446053 0.397758 0.452442 0.516658 0.402015 0.418093 0.471194 0.427816 0.483014 0.425698 0.460754 0.442609 0.390607 0.348638 0.35456 0.395748 0.368459 0.366653 0.356636 0.316146 0.340049 0.341426 0.33361 0.334821 0.368841 0.368548 0.0860566 0.091973 0.116807 0.101765 0.111477 0.0879234 0.0914432 0.0888889 0.0963647 0.0919282 0.0808985 0.0824962 0.086535 0.0849994 0.0835605 0 0 0 0.0291933 0.0462004 0.024307 0.480384 0.516435 0.442559 0.502289 0.510378 0.488414 0.500141 0.473855 0.511648 0.409453 0.436535 0.456439 0.465984 0.433621 0.47295 0.460371 0.13259 0.18481 0.197945 0.186873 0.197306 0.205184 0.200208 0.198118 0.863528 0.830291 0.844217 0.850363 0.855923 0.868539 0.863528 0.849083 0.855322 0.858286 0.860858 0.854686 0.853184 0.855044 0.849401 0.855919 0.854538 0.0215606 0.0256757 0.0333026 0.00914399 0.0197346 0.0215371 0.00842038 0.0284344 0.0221601 0.0323304 0.0197099 1.49012e-08 1.49012e-08 0.0119304 1.49012e-08 1.49012e-08 0.0191562 0.00882449 0.0146852 1.49012e-08 0.00986946 0.0182587 0.0244816 0.0323927 0.0246241 0.00940651 0.022874 0.0210852 0.00948779 0.0192316 0.0181872 0.0241766 0.0149702 0.0127369 0.02668 0.0193281 0.0181702 0.0113957 0.0154764 0.014694 0.520553 0.548608 0.522887 0.549912 0.533529 0.546296 0.558339 0.52796 0.506387 0.509663 0.513709 0.520463 0.604512 0.541561 0.550111 0.573644 0.56435 0.605629 0.606626 0.546171 0.572749 0.56516 0.571931 0.581286 0.593048 0.574715 0.591407 0.587149 0.59132 0.544516 0.520234 0.582464 0.55945 0.556623 0.566853 0.59939 0.863374 0.876855 0.860667 0.112567 0.133774 0.181375 0 0.125299 0.128347 0.126419 0.157041 0.156703 0.174249 0.0729254 0.0924281 0.176297 0.0395082 0.0538625 0.120229 0.139762 0.0866111 0.123402 0.137691 0.0410773 1.49012e-08 1.49012e-08 0.011833 1.49012e-08 0.0183767 1.49012e-08 0.00350909 1.49012e-08 0.0299771 0 0 0.0149068 0 0 1.49012e-08 0 0.0173678 0 0.863267 0.847284 0.847525 0.851923 0.846415 0.847582 0.85082 0.85634 0.852048 0.851465 0.857401 0.846431 0.848306 0.850134 0.847222 0.85877 0.860089 0.859007 0.852137 0.848722 0.852434 0.856926 0.858853 0.851556 0.857303 0.878339 0.880346 0.912231 0.850148 0.876312 0.875895 0.88146 0.874842 0.894334 0.889557 0.869951 0.862155 0.895578 0.85783 0.851268 0.875775 0.877699 0.864714 0.87665 0.871531 0.905966 0.90859 0.910454 0.893782 0.882526 0.892605 0.194839 0.210962 0.15342 0.151564 0.115341 0.147376 0.150293 0.114209 0.162027 0.13834 0.184527 0.754977 0.8026 0.81988 0.771406 0.786902 0.787073 0.814035 0.817173 0.823212 0.796729 0.803132 0.83764 0.838427 0.834312 0.851868 0.801718 0.801432 0.82249 0.824836 0.814066 0.81998 0.823557 0.835822 0.852187 0.794945 0.770502 0.837777 0.805216 0.82071 0.833305 0.79124 0.849936 0.833711 0.831626 0.848942 0.817419 0.0634178 0 0.0557475 0.0353471 0.106709 0.0882442 0.112656 0.13227 0.0961521 0.0711058 0.127297 0.123275 0.109772 0.086687 0.129484 0.133308 0.0858609 0.0930921 0.0828196 0.0817986 0.0958585 0.0905564 0.100357 0.108568 0.893403 0.917682 0.898291 0.902491 0.902824 0.914662 0.91024 0.916709 0.907554 0.840724 0.851877 0.833577 0.878008 0.890362 0.890158 0.151403 0.159573 0.159573 0.160706 0.138642 0.150885 0.112223 0.118339 0.136827 0.136912 0.131282 0.0987265 0.105651 0.115747 0.14172 0.135084 0.0988349 0.104682 0.113903 0.0860518 0.121294 0.141707 0.110473 0.109061 0.0943908 0.624055 0.663353 0.563544 0.575427 0.615119 0.658765 0.618896 0.574508 0.784324 0.788872 0.83299 0.830414 0.779405 0.790357 0.820956 0.823713 0.789554 0.785737 0.824362 0.825303 0.826686 0.779898 0.825872 0.149654 0.18426 0.174 0.170998 0.164459 0.161057 0.162476 0.167727 0.155639 0.154699 0.160054 0.153401 0.156837 0.15499 0.148541 0.146747 0.153268 0.164252 0.152128 0.145272 0.879983 0.886974 0.869501 0.876177 0.884045 0.886757 0.877144 0.893604 0.892963 0.897948 0.8834 0.885616 0.880539 0.883049 0.871048 0.89584 0.862018 0.87365 0.874387 0.866294 0.879707 0.89145 0.880068 0.889392 0.868327 0.891859 0.891446 0.877395 0.128598 0.145389 0.139727 0.14421 0.119273 0.103996 0.138337 0.138859 0.112517 0.13376 0.128671 0.143534 0.442468 0.473454 0.464719 0.453652 0.464025 0.448142 0.488946 0.455387 0.485456 0.438746 0.462956 0.47887 0.438017 0.452833 0.470757 0.469154 0.451379 0.454862 0.484724 0.446313 0.432687 0.416191 0.426634 0.438374 0.430616 0.452423 0.154259 0.162234 0.165909 0.825958 0.712993 0.757428 0.782365 0.751144 0.731766 0.741312 0.754012 0.783825 0.713238 0.762599 0.682416 0.703693 0.728848 0.72964 0.876261 0.885914 0.865663 0.867477 0.785807 0.800993 0.826263 0.832741 0.797036 0.787835 0.798419 0.784664 0.806709 0.782504 0.748574 0.765569 0.736191 0.783089 0.735187 0.744648 0.752076 0.713568 0.730946 0.770865 0.153685 0.15997 0.174944 0.724304 0.769108 0.802359 0.80858 0.766058 0.742024 0.784193 0.736162 0.76151 0.762225 0.781823 0.697404 0.707337 0.791123 0.798867 0.660337 0.666302 0.746709 0.748072 0.708269 0.666827 0.761376 0.77429 0.764612 0.712549 0.686395 0.654944 0.772387 0.736702 0.751376 0.724093 0.706899 0.708344 0.387565 0.37169 0.403166 0.413207 0.380489 0.377255 0.391831 0.376098 0.759537 0.78168 0.784098 0.79468 0.777329 0.777318 0.799381 0.758281 0.750236 0.744226 0.765918 0.741 0.193309 0.165542 0.215382 0.194803 0.179619 1.49012e-08 1.49012e-08 1.49012e-08 0 0 0 0.188482 0.150701 0.153674 0.130321 0.177651 0.167283 0.153479 0.391803 0.417257 0.450966 0.404513 0.438636 0.407324 0.398957 0.437057 0.403992 0.432889 0.300573 0.332448 0.359403 0.346582 0.370098 0.3419 0.381536 0.376073 0.379476 0.371763 0.310681 0.311994 0.344988 0.335097 0.886953 0.897144 0.883341 0.890312 0.891377 0.880862 0.881248 0.880784 0.881299 0.882177 0.88467 0.881096 0.134571 0.0919755 0.132228 0.0239921 0.124106 0.105427 0.130696 0.119737 0.123014 0.130517 0.0761194 0.0646064 0.0604645 0.0217626 0.0482733 0.014828 0.126854 0.0710269 0.0662956 0.07165 0.101049 0.103953 0.119171 0.0658512 0.0139875 0.102171 0.120599 0.0646368 0.114445 0.0577435 0.0289047 0.0147013 0.0152061 0.0479547 0.101962 0.0341483 0.0711821 0.0357584 0.0272803 0.0747992 0.00413907 3.72529e-09 0 0.0757303 3.72529e-09 3.72529e-09 0.00578449 3.72529e-09 0.00468836 0 0.00518492 3.72529e-09 3.72529e-09 0.0232799 0 3.72529e-09 3.72529e-09 3.72529e-09 3.72529e-09 3.72529e-09 0.0645177 0.0332462 0.0156029 0.041455 0.0442725 0.0426344 0.0216679 0.0160139 0.0186612 0.0268514 0.0889357 0.0868525 0.08392 0.0609524 0.0256985 0.0821089 0.0748174 0.0409959 0.0622348 0.0502827 0.8141 0.816004 0.772765 0.774452 0.837326 0.844422 0.754695 0.83636 0.842769 0.793874 0.814999 0.841035 0.805665 0.809238 0.751682 0.793029 0.765348 0.814099 0.754234 0.772152 0.802305 0.824755 0.835293 0.784261 0.748617 0.830475 0.785346 0.7959 0.697561 0.716735 0.707383 0.712245 0.709586 0.749594 0.759452 0.697441 0.688069 0.74438 0.753838 0.701423 0.447304 0.424017 0.431103 0.461496 0.473177 0.474544 0.474918 0.468517 0.460184 0.451656 0.446531 0.465185 0.433922 0.430149 0.448513 0.107877 0.0551423 0 0.0761212 0 0.0831782 0.0681206 0.0238452 0.0524839 3.72529e-09 0.101511 0.0976328 0.10194 0.0914579 0.0862935 0.0817785 0.0783967 0.105556 0.096055 0.0875398 0.0902712 0.0893058 0.0748082 0.0724083 0.849115 0.870991 0.87255 0.852086 0.862928 0.863911 0.851347 0.870074 0.861937 0.858442 0.871016 0.860788 0.868536 0.874769 0.875191 0.867719 0.864897 0.857717 0.868917 0.860732 1.49012e-08 1.49012e-08 0.0715808 0.117115 1.49012e-08 0.0985832 1.49012e-08 0.0526733 0.0673009 0.844109 0.843684 0.852385 0.850851 0.844375 0.847098 0.849876 0.845305 0.0724625 0.0457985 0.117411 0.214263 0.0639297 0.0503398 0.0843294 0.0388984 0.0930065 0.0569112 0.10163 0.0780631 0.119328 0.14627 0.136069 0.151558 0.0606392 0.0874571 0.111627 0.087572 0.148624 0.142982 0.124285 0.177461 0.192389 0.129497 0.0901764 0.152302 0.106838 0.146334 0.175715 0.194796 0.20136 0.158632 0.104094 0.175412 0.174333 0.149805 0.187048 0.145809 0.889416 0.880245 0.914605 0.885568 0.884021 0.899625 0.892288 0.909868 0.90487 0.897133 0.893784 0.91881 0.908794 0.907851 0.917301 0.898338 0.896118 0.908463 0.90744 0.902292 0.89493 0.90522 0.00721785 2.32831e-10 1.49012e-08 0 0.0024551 0 0.0100486 0 0.0168341 0 0 0 0 0 0 2.32831e-10 0.0043317 0 0 0 0.0576181 0.0180688 0.0418042 0.0230294 0.0409024 0.00653028 0.0226626 0.00467239 0.0483854 0.0116056 0.0156995 0.00792076 0.0169175 0.0305477 0.0223668 0.00893637 0.00763159 0 0.00529508 0 0 0 0 0 0 0 0 0 0 0 0 0 0 0 0 0 0.0496331 0.0116926 0 0.0274468 0.016768 0.00717726 1.49012e-08 0.0794436 1.49012e-08 0.0485266 0.0524243 0.0327926 0.00913155 0.0284888 0.0160248 0.0256673 0.0110287 0.0137617 0.0104393 0.0155853 0.0119455 0.00892446 0.0128226 0.0160408 0.011516 0.00860178 0.0119006 0.0323924 0.00944348 0.0339781 0.0178556 0.02613 0.0157592 0.0135892 0.00755386 0.15796 0.197665 0.0667919 0.0319742 0.117893 0.094935 0.0721765 0.0499058 0.179886 0.122331 0.114695 0.195406 0.0549123 0.0661033 0.120867 0.10168 0.16506 0.16493 0.159854 0.174201 0.180786 0.109624 0.0703841 0.178317 0.110709 0.118816 0.124591 0.158733 0.181501 0.101222 0.0695895 0.153123 0.142761 0.113751 0.160913 0.110141 0.0705995 0.0442233 0.114795 0.0980607 0.0612296 0.0519809 0.0389021 0.107009 0.0622821 0.107949 0.0683743 0.0734932 1.49012e-08 1.49012e-08 1.49012e-08 1.49012e-08 1.49012e-08 0.470108 0.492769 0.484364 0.483778 0.476792 0.48343 0.485894 0.467586 0.470746 0.475239 0.463284 0.49013 0.484201 0.475073 0.475099 0.838638 0.712728 0.720682 0.817912 0.818093 0.831701 0.82681 0.724132 0.798546 0.808236 0.844304 0.831313 0.787588 0.831156 0.548238 0.628512 0.699196 0.700594 0.816268 0.762979 0.877562 0.882178 0.887442 0.893103 0.879756 0.878923 0.881947 0.171916 0.206095 0.206103 0.142594 0.142038 0.131146 0.132954 0.143156 0.121182 0.135565 0.156848 0.181992 0.168464 0.203399 0.1748 0.193359 0.161232 0.16871 0.846327 0.846706 0.847363 0.301221 0.309757 0.326004 0.359754 0.329273