# vtk DataFile Version 5.1
vtk output
ASCII

DATASET UNSTRUCTURED_GRID
POINTS 7842 float
-0.213467 0.57405 -0.0777339
-0.119019 0.595832 0.0878872
-0.0704321 0.650507 -0.0889235
-0.177966 0.594695 -0.0140119
-0.145969 0.601484 0.0404281
-0.1649 0.602263 -0.0763615
-0.09315 0.635142 0.026432
-0.117581 0.627881 -0.0810575
-0.0770545 0.653386 -0.0323455
-0.126676 0.62525 -0.0210324
-0.0532892 0.569203 -0.0616902
-0.0543612 0.603018 -0.0751054
-0.0577765 0.630554 -0.0835793
-0.547988 0.482078 0.0230598
-0.595713 0.472065 0.0509393
-0.601327 0.530198 0.0822148
-0.655555 0.51485 -0.066061
-0.569074 0.473685 0.0381644
-0.583134 0.472079 0.0463376
-0.568666 0.505004 0.034452
-0.597652 0.492589 0.0603076
-0.585043 0.520815 0.0623534
-0.599543 0.512253 0.0698794
-0.582335 0.494198 -0.0124003
-0.602674 0.490653 0.00717941
-0.619294 0.528356 0.0283623
-0.617116 0.509138 -0.0444329
-0.622817 0.504514 -0.0323535
-0.636325 0.524067 -0.0210207
-0.582905 0.49701 0.052897
-0.59455 0.491725 -0.000108119
-0.598339 0.516365 -0.00289386
-0.611854 0.509629 0.0164988
-0.589065 0.516676 -0.0737456
-0.596433 0.53705 0.0394725
-0.591841 0.531976 -0.0191944
-0.572953 0.502353 -0.0387897
-0.557865 0.492385 -0.00790717
-0.577903 0.520681 0.00933972
-0.612825 0.519489 -0.0700846
-0.633359 0.521638 -0.0689459
-0.596194 0.504169 -0.0389542
-0.614241 0.529851 -0.016024
-0.382928 0.137522 -0.291835
-0.377817 0.110019 -0.307708
-0.492058 0.257291 -0.299868
-0.307543 0.0455473 -0.32291
-0.381318 0.128704 -0.297102
-0.377626 0.117074 -0.301695
-0.420748 0.176287 -0.288387
-0.41655 0.15432 -0.303813
-0.459373 0.212834 -0.290284
-0.458329 0.200572 -0.302978
-0.357132 0.117955 -0.311011
-0.34908 0.0909731 -0.32787
-0.426885 0.202179 -0.305145
-0.327422 0.0809728 -0.321755
-0.322188 0.0679889 -0.330058
-0.357335 0.145887 -0.314388
-0.41865 0.165275 -0.296104
-0.351029 0.102257 -0.32105
-0.387861 0.159944 -0.304469
-0.385382 0.150887 -0.313853
-0.484067 0.271664 -0.254265
-0.320552 0.0873333 -0.302047
-0.489757 0.272389 -0.274455
-0.489555 0.262923 -0.286266
-0.442656 0.231459 -0.272631
-0.42989 0.208523 -0.293374
-0.37018 0.156972 -0.290773
-0.366527 0.158348 -0.299023
-0.463172 0.237455 -0.26528
-0.338783 0.10637 -0.303121
-0.417638 0.181569 -0.27921
-0.362778 0.128327 -0.299104
-0.428755 0.213301 -0.286615
-0.457015 0.219157 -0.280192
-0.399044 0.175618 -0.285616
-0.393084 0.168842 -0.295023
-0.315118 0.0737274 -0.311426
-0.311458 0.0587356 -0.317584
-0.334326 0.0958391 -0.312334
-0.362516 0.152365 -0.307023
-0.134789 0.157172 -0.163987
-0.14516 0.172771 -0.143495
-0.0677838 0.144829 -0.121309
-0.121709 0.159081 -0.148281
-0.126433 0.16658 -0.142111
-0.104692 0.148863 -0.143594
-0.128584 0.166505 -0.137653
-0.0827998 0.146462 -0.128494
-0.104212 0.157121 -0.12933
-0.108268 0.156894 -0.135257
-0.181519 0.189779 -0.160119
-0.171939 0.187128 -0.15668
-0.15624 0.177841 -0.149714
-0.150113 0.168423 -0.150471
-0.101986 0.152845 -0.131763
-0.133018 0.165241 -0.142611
-0.096764 0.145454 -0.133646
-0.0883605 0.147335 -0.129284
-0.0739328 0.145622 -0.123896
-0.124241 0.155337 -0.143178
-0.160075 0.171222 -0.154947
-0.118099 0.156212 -0.138932
-0.527878 0.393969 -0.23932
-0.540526 0.38884 -0.267974
-0.478998 0.331448 -0.273707
-0.534385 0.39208 -0.249403
-0.537595 0.386427 -0.258392
-0.512836 0.371654 -0.252184
-0.522111 0.368939 -0.267004
-0.497024 0.344449 -0.26525
-0.502587 0.349676 -0.270063
-0.519125 0.349212 -0.259053
-0.528083 0.34155 -0.278242
-0.485285 0.308839 -0.284721
-0.505308 0.296405 -0.280113
-0.512994 0.297281 -0.289285
-0.489605 0.284028 -0.293022
-0.517054 0.368478 -0.260921
-0.523686 0.344425 -0.267799
-0.503672 0.324171 -0.273035
-0.507644 0.323837 -0.281855
-0.484532 0.326445 -0.256266
-0.482136 0.325864 -0.26235
-0.47984 0.326207 -0.267739
-0.488036 0.308056 -0.257966
-0.486876 0.312555 -0.274958
-0.484299 0.288163 -0.257698
-0.487872 0.293368 -0.271525
-0.502252 0.349579 -0.248559
-0.501525 0.31154 -0.262417
-0.516271 0.374414 -0.241582
-0.517046 0.357397 -0.252462
-0.487192 0.307099 -0.267606
-0.501204 0.34927 -0.256391
-0.503026 0.331507 -0.256366
-0.50115 0.330801 -0.264809
-0.506347 0.311584 -0.269518
-0.488562 0.288444 -0.282739
0.0826855 0.662007 0.0127203
-0.0395183 0.642706 0.0673034
0.0275272 0.664666 0.0418624
0.0387474 0.673929 -0.0165988
-0.0123267 0.670153 -0.0499264
-0.0209392 0.666483 0.00726654
0.0447432 0.631062 -0.00248624
0.000232015 0.593916 -0.0234677
-0.00252642 0.638023 -0.0381132
-0.563608 0.507271 -0.183176
-0.623831 0.531671 -0.175542
-0.593135 0.405946 -0.228573
-0.586048 0.513809 -0.183384
-0.604197 0.521707 -0.181368
-0.566534 0.461114 -0.224508
-0.599304 0.49488 -0.211729
-0.554063 0.416058 -0.251582
-0.569549 0.445341 -0.246296
-0.589408 0.47111 -0.198397
-0.621061 0.494312 -0.198152
-0.557965 0.388319 -0.260847
-0.593563 0.435701 -0.218724
-0.611109 0.452688 -0.217831
-0.57383 0.39355 -0.247747
-0.581016 0.47469 -0.222387
-0.604969 0.480961 -0.198421
-0.576307 0.430884 -0.23429
-0.592187 0.448206 -0.235072
-0.55736 0.411194 -0.217145
-0.536888 0.403261 -0.233168
-0.54924 0.391029 -0.252918
-0.545163 0.409412 -0.225672
-0.553548 0.405129 -0.235544
-0.537384 0.428031 -0.237391
-0.560838 0.441071 -0.209779
-0.552175 0.470893 -0.218984
-0.56527 0.473359 -0.195029
-0.544794 0.399189 -0.242674
-0.548698 0.427055 -0.243061
-0.549323 0.437639 -0.225195
-0.558597 0.427727 -0.233616
-0.572292 0.40659 -0.220457
-0.581826 0.401602 -0.226801
-0.581122 0.443271 -0.211012
-0.565381 0.398769 -0.240907
-0.122187 0.0762966 0.155016
-0.124644 0.05524 0.193447
-0.0674761 0.078836 0.208954
-0.102791 0.149611 0.119003
-0.121439 0.0697407 0.168624
-0.119968 0.0608005 0.181293
-0.110517 0.0830936 0.180054
-0.110083 0.064043 0.216178
-0.0880221 0.0776966 0.203969
-0.0894384 0.0735926 0.219492
-0.123919 0.0988134 0.143937
-0.129268 0.0909772 0.174372
-0.0897493 0.112171 0.187628
-0.114713 0.12495 0.127396
-0.121011 0.122516 0.146874
-0.0984099 0.13344 0.156067
-0.109 0.0725484 0.199157
-0.126028 0.0949641 0.160537
-0.105718 0.108799 0.166033
-0.110865 0.10004 0.187051
-0.0749775 0.0815303 0.180785
-0.0842171 0.129685 0.0842983
-0.0730266 0.0810593 0.189758
-0.0701192 0.0782257 0.199317
-0.0778737 0.0944976 0.161111
-0.0808803 0.0992366 0.183268
-0.0806371 0.110808 0.123667
-0.0853418 0.118449 0.136238
-0.0949463 0.0855347 0.173972
-0.107311 0.10722 0.120357
-0.112166 0.0825917 0.161192
-0.118013 0.0887012 0.142553
-0.0798458 0.099255 0.169634
-0.0932071 0.0822567 0.187648
-0.0996618 0.0958557 0.151771
-0.099572 0.100244 0.164083
-0.0939518 0.139457 0.098833
-0.0983454 0.1438 0.107586
-0.112566 0.115338 0.124749
-0.0908213 0.124893 0.147182
-0.37206 0.352294 -0.171476
-0.360751 0.315311 -0.193581
-0.110554 0.0575511 -0.175907
-0.251567 0.186015 -0.134077
-0.371846 0.338319 -0.178472
-0.365279 0.325816 -0.184844
-0.300898 0.268342 -0.172734
-0.284421 0.239273 -0.183924
-0.198009 0.152385 -0.171921
-0.201413 0.152539 -0.176392
-0.340468 0.30325 -0.159007
-0.321909 0.264984 -0.169209
-0.155203 0.0899132 -0.157498
-0.291767 0.240053 -0.145409
-0.285191 0.222749 -0.149131
-0.200169 0.13247 -0.143988
-0.290619 0.250008 -0.177748
-0.330007 0.281335 -0.163661
-0.25161 0.19911 -0.157753
-0.242986 0.183605 -0.163365
-0.144053 0.0936048 -0.158448
-0.277848 0.247928 -0.139427
-0.135802 0.0850829 -0.16484
-0.118703 0.0662897 -0.170787
-0.192338 0.143995 -0.153843
-0.163348 0.104545 -0.157691
-0.238982 0.199486 -0.146367
-0.228441 0.178117 -0.146697
-0.222994 0.187556 -0.163894
-0.311993 0.286552 -0.150982
-0.309234 0.287516 -0.167067
-0.345484 0.326658 -0.159147
-0.180445 0.127264 -0.155828
-0.219795 0.179256 -0.167676
-0.272497 0.242372 -0.157467
-0.25549 0.212614 -0.159888
-0.273931 0.230027 -0.138672
-0.257861 0.200751 -0.135763
-0.304839 0.26551 -0.149419
-0.210837 0.150125 -0.145797
-0.321259 -0.0318572 -0.303041
-0.344638 0.0922857 -0.319727
-0.341778 0.0577995 -0.342325
-0.310057 -0.00372751 -0.31753
-0.320601 0.0191465 -0.332186
-0.322175 0.00102515 -0.336581
-0.316527 -0.0285074 -0.307286
-0.340031 0.0756718 -0.330541
-0.32298 0.0462689 -0.328854
-0.317442 0.0258921 -0.336939
-0.315136 0.0387695 -0.318629
-0.316684 -0.00731537 -0.315751
-0.312184 0.0187523 -0.320844
-0.325292 0.0608866 -0.321794
-0.319618 0.0136612 -0.313989
-0.320895 -0.00140586 -0.31343
-0.321054 -0.0188991 -0.308692
-0.326077 0.0556573 -0.320981
-0.350881 0.107772 -0.310729
-0.317134 0.0329267 -0.314836
-0.317283 0.0591793 -0.311925
-0.325322 0.0438088 -0.326312
-0.317188 0.0156682 -0.317373
-0.330802 0.0802608 -0.313067
-0.553678 0.574905 -0.00739718
-0.590217 0.60558 0.0347229
-0.482225 0.572273 0.159734
-0.498156 0.618698 0.0027354
-0.567699 0.589211 0.021764
-0.577733 0.598829 0.0340848
-0.536344 0.571587 0.0753254
-0.562683 0.601789 0.0942666
-0.512709 0.569158 0.131955
-0.526872 0.590191 0.135279
-0.532074 0.596084 0.00705102
-0.568185 0.629082 0.0307706
-0.496996 0.603854 0.114306
-0.518048 0.610982 0.00613321
-0.537491 0.633838 0.0202104
-0.501955 0.619134 0.0636584
-0.547859 0.589004 0.0879699
-0.55027 0.615287 0.0240141
-0.517055 0.593072 0.0662889
-0.537011 0.620527 0.0819967
-0.473255 0.567883 -0.00637685
-0.480512 0.591219 -0.00665056
-0.491349 0.606413 -0.00197518
-0.502649 0.563652 0.000303161
-0.526551 0.564631 0.00574173
-0.508849 0.590869 0.00310893
-0.365628 0.18366 -0.256999
-0.327877 0.188159 -0.262347
-0.221002 0.118059 -0.264653
-0.276102 0.0441518 -0.306158
-0.353381 0.18811 -0.260089
-0.337874 0.185991 -0.261153
-0.324051 0.163739 -0.255118
-0.297651 0.159224 -0.263847
-0.269978 0.1331 -0.260098
-0.262795 0.132987 -0.263941
-0.320126 0.152007 -0.267762
-0.306677 0.148303 -0.276042
-0.237312 0.0959621 -0.281663
-0.285306 0.0946747 -0.288165
-0.285981 0.101652 -0.291499
-0.254313 0.0720977 -0.295164
-0.307068 0.160346 -0.259858
-0.31139 0.14802 -0.272369
-0.280011 0.11837 -0.271683
-0.27239 0.116024 -0.277418
-0.274564 0.121265 -0.259197
-0.256224 0.120423 -0.259725
-0.240047 0.117188 -0.262305
-0.268747 0.0958275 -0.277716
[...]
POINT_DATA 7842
SCALARS Norm_u float 1
LOOKUP_TABLE default
0.145769 0.142109 0.16334 0.148806 0.14733 0.150852 0.154836 0.157343 0.162088 0.154781 0.136736 0.148126 0.157021 0.176296 0.189934 0.20451 0.292636 0.18112 0.185534 0.191958 0.192672 0.197255 0.197891 0.21615 0.216883 0.233544 0.257353 0.252107 0.261453 0.18951 0.216547 0.229682 0.225454 0.263676 0.221647 0.24086 0.227792 0.199498 0.214496 0.274962 0.285348 0.241508 0.25039 0.744938 0.798476 0.614716 0.882315 0.761809 0.782408 0.69179 0.738323 0.650238 0.679371 0.781863 0.827481 0.671208 0.834521 0.857046 0.747364 0.71508 0.808144 0.723618 0.744061 0.545979 0.815547 0.568062 0.592128 0.603279 0.651158 0.71149 0.717269 0.593678 0.791042 0.674691 0.76 0.637847 0.631296 0.684908 0.703013 0.838323 0.861275 0.810244 0.732111 0.798867 0.787995 0.831576 0.806879 0.800904 0.818704 0.79958 0.828163 0.814128 0.814173 0.745472 0.755021 0.774315 0.782119 0.814021 0.794431 0.818336 0.820476 0.827586 0.801165 0.773598 0.803919 0.433339 0.477891 0.494335 0.450121 0.466813 0.459974 0.486513 0.486811 0.492894 0.488161 0.523638 0.534838 0.556253 0.570198 0.574862 0.476277 0.505538 0.518782 0.532204 0.481181 0.487742 0.493002 0.505532 0.520023 0.527701 0.538812 0.464301 0.517562 0.444604 0.471393 0.517544 0.474553 0.490423 0.500755 0.529054 0.557407 0.161858 0.153838 0.161118 0.16704 0.167384 0.163391 0.153409 0.142884 0.157141 0.345267 0.370008 0.418186 0.359371 0.366964 0.395768 0.395226 0.44316 0.431935 0.370903 0.38518 0.470429 0.400443 0.401573 0.449945 0.399918 0.37888 0.418679 0.421699 0.393298 0.41796 0.455435 0.404628 0.422613 0.411255 0.375986 0.379758 0.355497 0.43584 0.424014 0.393081 0.41301 0.403642 0.416444 0.385789 0.437333 0.0156269 0.00481222 0.0376629 0.0262047 0.0114458 0.00718259 0.0257209 0.0140464 0.0299144 0.0226678 0.022899 0.021559 0.0415559 0.0267782 0.0283737 0.0361636 0.0191453 0.0214849 0.0321173 0.0304764 0.0440726 0.0224554 0.0413557 0.0388821 0.0387684 0.0382131 0.0296411 0.0322713 0.0363189 0.0235506 0.0260427 0.0210799 0.0379878 0.0324572 0.0306398 0.0320001 0.0260852 0.0266616 0.0254965 0.0338725 0.480998 0.522892 0.885425 0.678179 0.493804 0.509428 0.591442 0.628626 0.751729 0.75091 0.53469 0.581607 0.827309 0.611888 0.63304 0.757381 0.614364 0.560771 0.67466 0.69583 0.835039 0.610309 0.847222 0.874027 0.758735 0.809682 0.67813 0.702696 0.705206 0.561926 0.569401 0.513072 0.779844 0.714748 0.625332 0.661479 0.627408 0.661623 0.583272 0.736463 0.996393 0.818454 0.87805 0.953799 0.921063 0.953092 0.991419 0.846027 0.883795 0.918497 0.887141 0.956921 0.918636 0.859615 0.921924 0.946488 0.974114 0.864955 0.792606 0.894054 0.85576 0.884056 0.921104 0.82913 0.240461 0.267423 0.129081 0.244712 0.246947 0.255172 0.192606 0.220664 0.152521 0.175045 0.2379 0.27435 0.18442 0.244167 0.267386 0.221357 0.20625 0.256061 0.203918 0.229005 0.199219 0.218633 0.233172 0.203158 0.212954 0.224735 0.646741 0.646905 0.766486 0.876507 0.643407 0.648543 0.678376 0.688475 0.731882 0.730981 0.703961 0.712946 0.80303 0.798287 0.788184 0.838945 0.685713 0.711761 0.757919 0.762584 0.751632 0.75613 0.76401 0.796792 0.837178 0.725948 0.680557 0.80074 0.721817 0.759311 0.0956925 0.0583346 0.0982473 0.0799028 0.0670016 0.08006 0.0695173 0.0818487 0.0807589 0.075745 0.11068 0.0679652 0.0843767 0.102208 0.0993621 0.0813983 0.591388 0.624327 0.42579 0.60191 0.618137 0.602912 0.623694 0.627109 0.630835 0.533731 0.554185 0.574636 0.475576 0.483122 0.502056 0.615175 0.540698 0.547427 0.562036 0.429488 0.563819 0.58181 0.488366 0.499496 0.617115 0.47876 0.602831 0.541685 0.563035 0.618541 0.544147 0.554937 0.428311 0.43222 0.484438 0.50338 0.161938 0.144372 0.165994 0.164325 0.156065 0.16637 0.164824 0.15717 0.153373 0.167132 0.0883231 0.0937602 0.0465292 0.0894153 0.0916884 0.0681929 0.077831 0.0551317 0.0616493 0.0686378 0.0739619 0.0472071 0.059319 0.0596491 0.0490087 0.0723584 0.0709851 0.0555439 0.0591099 0.0396096 0.0416144 0.0438149 0.0468393 0.0512406 0.052422 0.0675312 0.0470598 0.0543445 0.0564842 0.0255894 0.0353303 0.06469 0.0454183 0.0306178 0.032832 0.0286976 0.0318356 0.0434371 0.0432089 0.0295524 0.0335672 0.0597445 0.0375162 0.0374157 0.0530123 0.0308581 0.0323324 0.0391935 0.0401327 0.473833 0.457772 0.468317 0.464401 0.506047 0.512142 0.573766 0.573869 0.453929 0.446092 0.441185 0.436 0.508911 0.451506 0.502507 0.497389 0.539118 0.495721 0.548002 0.48598 0.444413 0.462531 0.443161 0.490178 0.113776 0.143456 0.132242 0.124271 0.133667 0.140196 0.102321 0.107398 0.111057 0.114022 0.127295 0.119969 0.0531066 0.0872416 0.0848739 0.0579945 0.067954 0.0700598 0.0561118 0.0855867 0.0692879 0.0704106 0.0478135 0.0291646 0.0478245 0.0357135 0.033428 0.0528392 0.0312686 0.0510217 0.0364979 0.036386 0.0180483 0.0433275 0.0220207 0.0237863 0.0304566 0.0310448 0.038484 0.0381688 0.0317803 0.0463025 0.0462967 0.0374748 0.0327791 0.0316852 0.155214 0.0339695 0.0384623 0.0683207 0.0906287 0.119194 0.130206 0.0456426 0.0499501 0.132873 0.0551939 0.059253 0.0998178 0.0827655 0.0489051 0.0841599 0.0964796 0.0461378 0.0488872 0.0545643 0.0386975 0.0468053 0.05236 0.0466401 0.0515795 0.0437576 0.0457323 0.0289921 0.0391007 0.0341539 0.0385661 0.0366012 0.0401309 0.0426904 0.0371377 0.0415316 0.0295166 0.024727 0.0418016 0.0321446 0.0342653 0.126707 0.0699928 0.0950977 0.0713075 0.103942 0.0571025 0.0860565 0.0632872 0.0784135 0.287638 0.318062 0.402578 0.433556 0.299545 0.311559 0.321761 0.330422 0.367749 0.357085 0.339659 0.342299 0.415195 0.390344 0.378824 0.426558 0.331993 0.347656 0.373259 0.369944 0.418526 0.416558 0.424993 0.377847 0.33048 0.379907 0.384666 0.426706 0.437013 0.411973 0.400214 0.410063 0.398584 0.430774 0.416085 0.42322 0.363704 0.403084 0.412992 0.381362 0.384468 0.396357 0.435663 0.404545 0.416731 0.418302 0.369069 0.379754 0.402411 0.392146 0.113603 0.11524 0.119802 0.123221 0.114086 0.091034 0.0912602 0.0359234 0.0498526 0.0427664 0.0399857 0.045733 0.0484102 0.466892 0.500431 0.449026 0.475311 0.493228 0.451777 0.479002 0.43924 0.457751 0.466987 0.490142 0.437502 0.458443 0.47105 0.443042 0.465392 0.478256 0.447529 0.464126 0.431979 0.442669 0.428618 0.446458 0.433811 0.433125 0.444714 0.45172 0.451337 0.450344 0.453475 0.460323 0.439876 0.430014 0.458174 0.441201 0.441705 0.0283662 0.0289643 0.0250087 0.0219133 0.0364109 0.0390198 0.0260073 0.0356033 0.0359228 0.0306844 0.0280374 0.0375356 0.0304498 0.0295756 0.0251702 0.0296914 0.0260963 0.0368167 0.0350158 0.0354797 0.0419982 0.0467442 0.04039 0.0403628 0.0393634 0.0379309 0.0175618 0.0193976 0.021816 0.0179342 0.0178147 0.0236344 0.0234928 0.020397 0.0179211 0.0210581 0.023181 0.0227046 0.0296264 0.0199043 0.0700629 0.0276149 0.0245511 0.0316784 0.0278303 0.0379578 0.0365312 0.0402375 0.0323107 0.0531147 0.0546268 0.0494077 0.0614001 0.0310431 0.037729 0.0449424 0.0421947 3.72529e-09 3.72529e-09 0.00565984 0.000372902 3.72529e-09 3.72529e-09 0.00339061 3.72529e-09 0.0052402 0.00288795 3.72529e-09 3.72529e-09 0.00539876 3.72529e-09 3.72529e-09 0.0038825 0.00181189 3.72529e-09 0.00287402 0.00180516 0.0106667 0.00961445 0.00768323 0.00740655 0.00394841 0.00592007 0.0429794 0.0308302 0.0312136 0.0359632 0.035681 0.0281354 0.025713 0.0315492 0.0263211 0.0242473 0.0236201 0.0317956 0.0276312 0.0279996 0.0262962 0.0373971 0.0382314 0.0407471 0.0304279 0.034901 0.0281773 0.0281753 0.0331439 0.0290331 0.0271572 0.027509 0.0318379 0.0343795 0.0290715 0.0301889 0.0281474 0.0268711 0.732137 0.707578 0.755074 0.731996 0.724177 0.748274 0.726516 0.75392 0.74192 0.739738 0.678908 0.653837 0.660075 0.675065 0.672023 0.709098 0.739353 0.657183 0.700112 0.699982 0.700624 0.723617 0.695794 0.729562 0.039576 0.031015 0.0237754 0.0413775 0.0546465 0.0362488 0.978305 0.89359 0.95581 0.962389 0.986181 0.986903 0.99257 0.924265 0.958494 0.989582 0.951653 0.963736 0.975761 0.942643 0.975435 0.932131 0.954384 0.913064 0.861262 0.959244 0.934752 0.903317 0.930927 0.975988 0.0283142 0.026464 0.0328288 0.0338194 0.0286071 0.0311115 0.0311444 0.026407 0.0283554 0.0296058 0.0310293 0.043667 0.0461946 0.0376924 0.0377958 0.0437877 0.0436033 0.0437583 0.0370121 0.0410053 0.0424399 0.0418008 0.0358432 0.24166 0.309378 0.333175 0.367781 0.373364 0.251349 0.261409 0.347524 0.241893 0.243451 0.288646 0.323605 0.25859 0.291698 0.306005 0.220799 0.329591 0.356281 0.261193 0.277266 0.334604 0.234589 0.289342 0.2507 0.335695 0.346149 0.282484 0.301171 0.228262 0.236452 0.240095 0.287108 0.085074 0.0721424 0.0763043 0.0850841 0.0954144 0.0996243 0.104301 0.0890824 0.0802398 0.0827889 0.0847688 0.0853466 0.0899698 0.0915331 0.0953014 0.0888717 0.100089 0.137784 0.128693 0.111618 0.141851 0.109818 0.141309 0.12663 0.128556 0.0992161 0.123087 0.108527 0.268594 0.357493 0.282023 0.310019 0.279009 0.29446 0.305128 0.316232 0.28833 0.332718 0.327597 0.320372 0.291808 0.311419 0.302544 0.313573 0.279179 0.272902 0.269778 0.308469 0.338551 0.279366 0.279641 0.299066 0.276079 0.311957 0.383985 0.369387 0.368318 0.344344 0.30964 0.346005 0.3086 0.332799 0.336308 0.314327 0.843316 0.784538 0.805671 0.821581 0.825557 0.835 0.832023 0.796898 0.81417 0.818405 0.830195 0.832099 0.839405 0.822413 0.834415 0.818907 0.825533 0.802769 0.767816 0.827994 0.806805 0.800623 0.808768 0.829201 0.117384 0.143078 0.116452 0.13265 0.141083 0.11226 0.138259 0.111004 0.128376 0.126854 0.173239 0.189935 0.187851 0.198739 0.194117 0.179778 0.198131 0.185909 0.203733 0.196955 0.392497 0.389812 0.39431 0.393632 0.416002 0.414344 0.445868 0.439627 0.386165 0.391571 0.388541 0.391609 0.417046 0.391135 0.415906 0.414854 0.443122 0.411622 0.440846 0.404874 0.374575 0.384138 0.379158 0.406046 0.0424438 0.0395533 0.0340439 0.0333784 0.0367286 0.0361291 0.0399595 0.0310187 0.0302676 0.0340661 0.0338452 0.0278543 0.614562 0.652955 0.674497 0.628873 0.643473 0.628248 0.663734 0.652025 0.670624 0.685989 0.728267 0.719329 0.759431 0.77711 0.761124 0.646303 0.709029 0.703646 0.726828 0.693236 0.714514 0.703126 0.648994 0.677817 0.724609 0.736675 0.105887 0.117581 0.0897721 0.0491177 0.0659019 0.0495509 0.0881804 0.0649756 0.0866088 0.0654596 0.0862183 0.0805253 0.0854292 0.0817473 0.0762138 0.109394 0.0939508 0.125211 0.116324 0.100408 0 0.00250409 0.0104005 0.0153779 0.00298053 0.00574752 0.0114728 0.0148315 0 0.00284105 0.00391371 0.000605653 0.0113666 0.0116909 0.00287564 0.00490135 0.00143643 0.00224679 0.00238487 0.00444027 0.00995447 0.00400122 0.167779 0.161942 0.175576 0.190869 0.21664 0.195987 0.173726 0.184942 0.200679 0.209889 0.207272 0.255828 0.203726 0.213712 0.240512 0.210885 0.234847 0.192724 0.22633 0.126083 0.112626 0.118332 0.144911 0.14654 0.12683 0.149163 0.122067 0.137504 0.152879 0.134841 0.133096 0.149401 0.174138 0.174603 0.110556 0.121912 0.140799 0.129277 0.141974 0.125502 0.133922 0.131973 0.129379 0.113849 0.113122 0.11418 0.127651 0.131048 0.121716 0 0 0 0.0130253 0.0222106 0.00915987 0.245151 0.281728 0.25119 0.28927 0.304202 0.286931 0.264393 0.251894 0.273933 0.232061 0.257216 0.246245 0.217563 0.226465 0.265094 0.271086 0.131634 0.150904 0.159334 0.164239 0.164882 0.184064 0.17571 0.170988 0.724364 0.749171 0.739071 0.767076 0.755789 0.778491 0.776669 0.762208 0.704612 0.708981 0.716193 0.720946 0.741049 0.732283 0.745363 0.732629 0.759501 0.0143106 0.00606958 0.00641178 0.00653586 0.0117213 0.00904997 0.015609 0.00614299 0.0113552 0.00672723 0.0104666 1.49012e-08 1.49012e-08 0.00386671 1.49012e-08 1.49012e-08 0.0105949 0.00531604 0.00662482 1.49012e-08 0.0235832 0.0167764 0.0201309 0.0119099 0.0216094 0.00427877 0.0188849 0.0100716 0.0196749 0.0144821 0.0168699 0.0153928 0.013333 0.0172285 0.0186617 0.0130323 0.0117401 0.00643409 0.00946378 0.00417908 0.196151 0.205097 0.218924 0.22268 0.200219 0.231649 0.228196 0.220211 0.199705 0.183991 0.207676 0.214372 0.426537 0.385801 0.398327 0.411543 0.419569 0.445076 0.461792 0.397068 0.424259 0.427385 0.3649 0.393139 0.411678 0.391102 0.424034 0.414905 0.427223 0.359367 0.349578 0.410656 0.389935 0.386683 0.405972 0.445336 0.762599 0.778744 0.768004 0.030528 0.0378751 0.109127 0 0.0332013 0.0353128 0.051802 0.0567865 0.0844425 0.080605 0.0218067 0.0339386 0.0842218 0.0125925 0.0237385 0.0513331 0.0561649 0.0285217 0.0522332 0.0563624 0.00354 1.49012e-08 1.49012e-08 0.000483466 1.49012e-08 0.00251112 1.49012e-08 0.00107079 1.49012e-08 0.00268426 0 0 0.0018451 0 0 1.49012e-08 0 0.00170208 0 0.918386 0.938109 0.967606 0.913979 0.933447 0.944249 0.966125 0.895446 0.930533 0.94374 0.908717 0.952879 0.955653 0.924598 0.938987 0.885536 0.884017 0.887263 0.912366 0.935461 0.912432 0.897426 0.909379 0.923638 0.898358 0.899366 0.96492 0.880567 0.983706 0.9206 0.948156 0.903907 0.941739 0.898905 0.914964 0.933824 0.984095 0.912807 0.967512 0.99101 0.947609 0.924452 0.960138 0.932995 0.948128 0.865823 0.869568 0.876177 0.875322 0.88806 0.887074 0.107165 0.109548 0.124441 0.153609 0.167968 0.148798 0.168197 0.169889 0.0911507 0.115024 0.126775 0.471294 0.484343 0.587366 0.473416 0.479775 0.499373 0.516173 0.542949 0.550803 0.530835 0.540463 0.607099 0.623268 0.61805 0.649924 0.508816 0.538047 0.569804 0.572668 0.548783 0.559761 0.575441 0.592618 0.650441 0.521822 0.491125 0.601656 0.529112 0.571629 0.611254 0.525713 0.639725 0.587056 0.607546 0.638942 0.566241 0.0341504 0 0.0203716 0.00919039 0.042716 0.0291985 0.0449558 0.0421087 0.0340555 0.0156324 0.0348492 0.0282163 0.0362716 0.0236867 0.0422959 0.0368519 0.0417057 0.042078 0.041871 0.0393946 0.0430341 0.0421053 0.0439969 0.0390827 0.932356 0.915524 0.935142 0.920878 0.926143 0.901117 0.922469 0.912492 0.924817 0.720292 0.725119 0.73514 0.965648 0.947792 0.940925 0.0846059 0.0878354 0.0849556 0.0869506 0.0868251 0.0888851 0.102995 0.100013 0.0970285 0.101521 0.153391 0.110755 0.112409 0.152375 0.0890647 0.101461 0.110556 0.114575 0.131131 0.11724 0.0994971 0.0870041 0.0990739 0.106695 0.13233 0.375996 0.390129 0.343356 0.341945 0.373965 0.39313 0.37409 0.348415 0.511703 0.521055 0.618424 0.610596 0.507381 0.521756 0.611934 0.606211 0.522138 0.518012 0.609222 0.610027 0.606873 0.507642 0.603323 0.123916 0.0753623 0.0804482 0.0973887 0.10083 0.114634 0.112206 0.0987429 0.0957522 0.111723 0.0983745 0.116324 0.119898 0.123358 0.102915 0.0902758 0.10679 0.0743522 0.081768 0.0903958 0.799092 0.812858 0.760326 0.771829 0.847201 0.854638 0.79087 0.868754 0.870933 0.844945 0.804839 0.851456 0.812063 0.822643 0.769954 0.836208 0.748263 0.796373 0.781186 0.758862 0.812541 0.854414 0.840582 0.820146 0.757281 0.859327 0.824863 0.809109 0.120302 0.123083 0.109777 0.111305 0.113106 0.116341 0.115613 0.11855 0.116712 0.100492 0.107783 0.120168 0.134344 0.140888 0.126963 0.133686 0.136282 0.133008 0.148743 0.130574 0.141314 0.117022 0.124406 0.122701 0.104983 0.110615 0.111914 0.141056 0.120612 0.119439 0.129601 0.119423 0.107436 0.102003 0.118293 0.119582 0.104469 0.109246 0.130423 0.134452 0.116267 0.472328 0.428509 0.451774 0.453913 0.441818 0.436909 0.446968 0.450281 0.459841 0.438592 0.448517 0.428534 0.427671 0.438463 0.434209 0.784912 0.794754 0.761678 0.766806 0.522603 0.562912 0.621579 0.630251 0.5501 0.526719 0.546236 0.52198 0.460882 0.453787 0.44399 0.446862 0.447491 0.458549 0.44774 0.446403 0.44991 0.438786 0.439193 0.454448 0.0582542 0.0733219 0.0670268 0.431773 0.459988 0.481404 0.476713 0.455892 0.460514 0.473961 0.452606 0.459776 0.465537 0.46584 0.432591 0.436927 0.509186 0.510687 0.402418 0.40466 0.449126 0.445919 0.43895 0.404866 0.471223 0.478635 0.493695 0.44598 0.430169 0.41065 0.49455 0.466915 0.471256 0.442801 0.422251 0.418324 0.222499 0.24663 0.253815 0.268105 0.213963 0.239737 0.241961 0.24116 0.461041 0.460857 0.473898 0.474242 0.464248 0.465191 0.467874 0.461156 0.465394 0.458315 0.468503 0.455071 0.149252 0.139494 0.15721 0.151451 0.144903 1.49012e-08 1.49012e-08 1.49012e-08 0 0 0 0.0598932 0.0670062 0.137357 0.159255 0.11488 0.120649 0.145925 0.0850305 0.0869575 0.0985656 0.0863719 0.0951393 0.0726756 0.0577333 0.0928821 0.070487 0.0793195 0.059621 0.0697297 0.0772018 0.056119 0.0506021 0.0675679 0.0761478 0.0643669 0.0779405 0.0602151 0.0439537 0.0513416 0.0478302 0.0583153 0.85919 0.87989 0.915024 0.921775 0.874872 0.893506 0.898231 0.874511 0.847993 0.86385 0.873064 0.890222 0.0187113 0.00695551 0.0189536 0.0058794 0.0144145 0.00900123 0.0199967 0.0107424 0.0203209 0.0172757 0.012895 0.00264178 0.0163141 0.00846493 0.00438515 0.0113807 0.0156081 0.00704537 0.0153156 0.00936871 0.0131779 0.0156159 0.0182083 0.0170946 0.0136255 0.0199701 0.0209449 0.0176907 0.0205323 0.0157246 0.00734484 0.00759967 0.00653914 0.0139435 0.0158438 0.0128055 0.015505 0.0115128 0.0136291 0.0178895 0.000620469 3.72529e-09 0 0.00518457 3.72529e-09 3.72529e-09 0.00150025 3.72529e-09 0.00131 0 0.00139762 3.72529e-09 3.72529e-09 0.00223043 0 3.72529e-09 3.72529e-09 3.72529e-09 3.72529e-09 3.72529e-09 0.0109264 0.00659943 0.00331346 0.00557347 0.00403061 0.0117475 0.0091004 0.00207025 0.00588568 0.00523664 0.0135782 0.00946267 0.00771673 0.00825698 0.00704354 0.0100973 0.0100214 0.00532617 0.00652051 0.0100663 0.689342 0.712898 0.591101 0.598268 0.766789 0.805485 0.538824 0.712632 0.727047 0.587106 0.700241 0.787058 0.643468 0.651165 0.530257 0.589642 0.563343 0.682564 0.535621 0.582357 0.630216 0.692662 0.757439 0.586391 0.528159 0.704824 0.582443 0.621335 0.450798 0.449311 0.474957 0.472528 0.452134 0.517053 0.519355 0.46308 0.447012 0.5145 0.524122 0.468535 0.113553 0.100099 0.102992 0.109321 0.135532 0.137239 0.138439 0.116033 0.124635 0.10285 0.108513 0.119952 0.112956 0.102271 0.117447 0.0116223 0.0063049 0 0.00685039 0 0.00571605 0.00479866 0.00302551 0.00436235 3.72529e-09 0.00899454 0.00956553 0.010542 0.00953807 0.00644185 0.0113566 0.00821931 0.00953946 0.0111033 0.00763043 0.00796201 0.00961825 0.00692401 0.00632837 0.977836 0.929213 0.977657 0.982068 0.961816 0.981739 0.979779 0.955884 0.961624 0.986422 0.922561 0.967012 0.944217 0.91075 0.902102 0.941627 0.936632 0.960809 0.932465 0.961266 1.49012e-08 1.49012e-08 0.0143286 0.0251911 1.49012e-08 0.0227443 1.49012e-08 0.0109983 0.0130755 0.859497 0.914284 0.88732 0.910721 0.883753 0.789148 0.810341 0.783147 0.0191709 0.00609416 0.0197942 0.0264867 0.0158768 0.0100183 0.0199923 0.0143107 0.017658 0.0166014 0.0291897 0.0219719 0.0247733 0.0321861 0.0314495 0.0260781 0.0161715 0.0259226 0.0263118 0.0221623 0.0261207 0.0227398 0.0190634 0.028734 0.029225 0.0254505 0.0213057 0.0261527 0.0202606 0.028408 0.0216913 0.0267522 0.0276614 0.0275322 0.0260225 0.0249432 0.0268834 0.0286637 0.0279919 0.0270746 0.776458 0.80668 0.866068 0.784128 0.799936 0.815882 0.827389 0.849709 0.847719 0.811506 0.830746 0.869964 0.850614 0.854932 0.875447 0.826019 0.82235 0.845479 0.850871 0.836746 0.799617 0.841268 0.00217555 2.32831e-10 1.49012e-08 0 0.000873134 0 0.00209539 0 0.00291471 0 0 0 0 0 0 2.32831e-10 0.000965031 0 0 0 0.0073405 0.00627901 0.00582268 0.00346253 0.00400372 0.00109375 0.00410272 0.00156117 0.00436551 0.00403474 0.00242492 0.00253233 0.00220174 0.00364619 0.00332387 0.00166555 0.00216752 0 0.00114664 0 0 0 0 0 0 0 0 0 0 0 0 0 0 0 0 0 0.00581397 0.000919102 0 0.00494383 0.00695231 0.00178422 1.49012e-08 0.0268251 1.49012e-08 0.0152905 0.0132899 0.0200692 0.0113508 0.0199206 0.0153873 0.0150833 0.00723031 0.00822544 0.00529127 0.00852956 0.00207994 0.0029904 0.00557324 0.0116832 0.00546171 0.00355412 0.00322562 0.0132379 0.00555143 0.0174792 0.011363 0.0121404 0.00873029 0.00840417 0.00313031 0.0567131 0.042168 0.0217416 0.0170048 0.0393734 0.0368275 0.0175589 0.0115429 0.0502614 0.0269375 0.0243545 0.0476414 0.0205416 0.0150809 0.0330578 0.029892 0.0423057 0.0473184 0.0521737 0.044677 0.0443931 0.0332821 0.0216503 0.0472355 0.0348418 0.0311081 0.0336475 0.0403367 0.0419442 0.0267636 0.0190342 0.0383222 0.0388095 0.0276657 0.042016 0.0302458 0.0301959 0.0307208 0.0420018 0.0414574 0.0317598 0.023999 0.0235094 0.0346868 0.0270464 0.0373098 0.0251199 0.027857 1.49012e-08 1.49012e-08 1.49012e-08 1.49012e-08 1.49012e-08 0.0967614 0.159134 0.172786 0.146346 0.155223 0.154506 0.16221 0.125791 0.125191 0.131421 0.112088 0.