# vtk DataFile Version 5.1
vtk output
ASCII

DATASET UNSTRUCTURED_GRID
POINTS 7842 float
-0.0738794 0.593626 -0.0662032
0.0195719 0.589573 0.0930579
0.0878203 0.627892 -0.0827589
-0.0332655 0.603466 -0.00783507
-0.00212158 0.602096 0.0452293
-0.0179811 0.606692 -0.0698463
0.0573989 0.620065 0.0319534
0.0359064 0.618124 -0.0753925
0.0801647 0.63285 -0.0266501
0.0244184 0.618977 -0.0163226
0.0783183 0.545031 -0.059512
0.0883888 0.577622 -0.0714124
0.0938065 0.60502 -0.0787147
-0.433694 0.603713 0.0657319
-0.483783 0.617623 0.0830702
-0.462238 0.65698 0.160328
-0.48878 0.719021 0.0432758
-0.457817 0.607142 0.0740353
-0.472071 0.612294 0.0798512
-0.440808 0.629962 0.0950717
-0.476911 0.631082 0.109866
-0.451098 0.644274 0.133391
-0.469723 0.644183 0.135631
-0.448795 0.644253 0.0510756
-0.471651 0.646965 0.0651243
-0.467602 0.675388 0.121101
-0.464304 0.686195 0.0461615
-0.473319 0.680772 0.0519003
-0.476443 0.696074 0.082104
-0.460552 0.628029 0.106013
-0.462894 0.645852 0.0601887
-0.451799 0.66563 0.080289
-0.469786 0.661353 0.0936252
-0.429105 0.688288 0.028738
-0.445525 0.667411 0.13036
-0.435304 0.678084 0.0795297
-0.429985 0.653542 0.036757
-0.429717 0.62664 0.0494584
-0.435071 0.653168 0.0889498
-0.449484 0.702335 0.0368173
-0.466439 0.714005 0.0424798
-0.449486 0.668963 0.0421368
-0.455639 0.687849 0.0847911
-0.462675 0.794709 -0.368724
-0.488318 0.812349 -0.382404
-0.382062 0.810489 -0.241996
-0.470695 0.807579 -0.467496
-0.471468 0.800527 -0.371524
-0.481228 0.805493 -0.378333
-0.43696 0.796871 -0.327331
-0.455901 0.816785 -0.33856
-0.412583 0.801262 -0.285051
-0.420294 0.816062 -0.291866
-0.466447 0.803058 -0.400147
-0.482877 0.813967 -0.4163
-0.408787 0.807803 -0.315663
-0.470629 0.805816 -0.43756
-0.477058 0.812397 -0.44465
-0.438433 0.807298 -0.390877
-0.446779 0.80688 -0.332769
-0.475436 0.809159 -0.41004
-0.440643 0.804478 -0.360972
-0.447308 0.81359 -0.367464
-0.379737 0.763971 -0.233272
-0.463783 0.78916 -0.442376
-0.378091 0.783472 -0.230901
-0.38196 0.79604 -0.238603
-0.39564 0.775733 -0.284711
-0.405634 0.795684 -0.308543
-0.433862 0.784707 -0.374039
-0.433424 0.792856 -0.377042
-0.400252 0.773528 -0.268091
-0.464313 0.792787 -0.419186
-0.433927 0.784776 -0.326402
-0.461183 0.79428 -0.390829
-0.403917 0.787982 -0.305716
-0.410402 0.789798 -0.282227
-0.430799 0.785625 -0.343807
-0.434093 0.795336 -0.35219
-0.465201 0.796284 -0.452292
-0.46844 0.801602 -0.460632
-0.466281 0.799683 -0.427444
-0.436096 0.800216 -0.383532
-0.15104 0.889446 -0.329414
-0.127088 0.904963 -0.299642
-0.123249 0.913544 -0.33227
-0.139771 0.904058 -0.322169
-0.131821 0.909153 -0.312256
-0.140806 0.902403 -0.332262
-0.127543 0.908073 -0.310195
-0.131525 0.910415 -0.333183
-0.126245 0.910939 -0.321106
-0.132503 0.909943 -0.32259
-0.142733 0.875032 -0.295292
-0.13915 0.883598 -0.295671
-0.132676 0.894546 -0.299725
-0.135748 0.889778 -0.309167
-0.128772 0.905165 -0.323942
-0.130884 0.900007 -0.31227
-0.130104 0.900562 -0.327821
-0.128864 0.904734 -0.328987
-0.125952 0.90985 -0.331967
-0.132429 0.89411 -0.320215
-0.138042 0.883181 -0.307418
-0.131511 0.898403 -0.320304
-0.350752 0.752745 -0.133359
-0.364307 0.787292 -0.132115
-0.32731 0.764273 -0.190264
-0.356763 0.765456 -0.131821
-0.361743 0.776536 -0.134739
-0.342657 0.761617 -0.151763
-0.350572 0.78141 -0.152548
-0.337942 0.766625 -0.175805
-0.338302 0.774061 -0.171902
-0.35902 0.772154 -0.166668
-0.367946 0.79567 -0.168526
-0.343553 0.781723 -0.210067
-0.371407 0.791899 -0.20875
-0.373394 0.803788 -0.205291
-0.361868 0.797135 -0.227287
-0.346327 0.772796 -0.153596
-0.364099 0.78306 -0.168211
-0.354027 0.779973 -0.190485
-0.354818 0.789973 -0.190205
-0.344458 0.752648 -0.190389
-0.338796 0.756687 -0.191411
-0.334149 0.760677 -0.192882
-0.356494 0.759301 -0.204352
-0.345728 0.773012 -0.204451
-0.367751 0.762316 -0.221037
-0.361072 0.774905 -0.218553
-0.345986 0.752986 -0.170406
-0.363738 0.771271 -0.198938
-0.346709 0.751131 -0.149709
-0.35362 0.763336 -0.161529
-0.352557 0.767719 -0.207184
-0.341785 0.760317 -0.170646
-0.354724 0.762606 -0.183616
-0.350221 0.769935 -0.185522
-0.365907 0.780636 -0.197439
-0.361614 0.786396 -0.222792
0.229378 0.602449 0.0199623
0.107741 0.61311 0.0744816
0.177672 0.617419 0.0501002
0.19426 0.623216 -0.0105882
0.147079 0.631697 -0.0448265
0.134957 0.631279 0.0135756
0.186315 0.580969 0.00252748
0.134793 0.555588 -0.0204295
0.146235 0.598561 -0.0336149
-0.373003 0.734122 -0.0317597
-0.424225 0.778084 -0.00946685
-0.409996 0.744982 -0.119308
-0.391468 0.75334 -0.025105
-0.406691 0.766881 -0.0183131
-0.376051 0.755078 -0.0761263
-0.400308 0.775907 -0.0484815
-0.370305 0.772209 -0.111528
-0.37994 0.779152 -0.0889775
-0.39934 0.740982 -0.0620119
-0.423865 0.770692 -0.0470713
-0.382966 0.781351 -0.127343
-0.405969 0.747499 -0.0936628
-0.418984 0.759851 -0.08383
-0.398459 0.767377 -0.12283
-0.386969 0.76743 -0.0649268
-0.411447 0.755401 -0.0549588
-0.389575 0.759714 -0.0973555
-0.401163 0.773721 -0.0861137
-0.372773 0.723117 -0.114253
-0.356367 0.742923 -0.123463
-0.372599 0.769253 -0.128825
-0.361962 0.733209 -0.117001
-0.371857 0.74753 -0.118602
-0.352972 0.750297 -0.105837
-0.3734 0.725509 -0.0909805
-0.362139 0.743963 -0.0690001
-0.37686 0.725578 -0.0617729
-0.365126 0.756525 -0.124391
-0.363578 0.761116 -0.104331
-0.362297 0.738384 -0.0959715
-0.372392 0.751569 -0.101853
-0.389062 0.730288 -0.114383
-0.399618 0.73957 -0.118272
-0.393365 0.73755 -0.08632
-0.38619 0.757686 -0.119559
-0.108359 0.0714442 0.160661
-0.120234 0.0555706 0.195541
-0.0423638 0.0809447 0.236938
-0.0803607 0.13637 0.120682
-0.111926 0.0643668 0.172264
-0.114139 0.0572844 0.183779
-0.0874497 0.0750076 0.188298
-0.0961426 0.061962 0.21736
-0.0633983 0.0729058 0.220366
-0.0701785 0.0704136 0.231162
-0.103373 0.0910419 0.150626
-0.109073 0.0845958 0.17886
-0.0573126 0.0982512 0.209626
-0.0913742 0.11353 0.133862
-0.0957766 0.111536 0.153919
-0.069979 0.116754 0.170883
-0.091129 0.0670395 0.203645
-0.106601 0.0873091 0.165917
-0.0791646 0.0962781 0.179154
-0.0841214 0.0903897 0.198242
-0.0412014 0.0730947 0.207808
-0.064617 0.120085 0.0891435
-0.0428498 0.0745842 0.217268
-0.0431155 0.0746842 0.227048
-0.0484932 0.0823372 0.183274
-0.0512977 0.0892214 0.205302
-0.0585445 0.0969229 0.137623
-0.0609482 0.103086 0.150618
-0.0646682 0.0760012 0.191705
-0.0872822 0.0976727 0.128293
-0.089375 0.0751181 0.171497
-0.0998163 0.0811979 0.150263
-0.0508977 0.0874505 0.191198
-0.066156 0.0741579 0.203748
-0.0746458 0.0847979 0.165652
-0.0735306 0.088287 0.1784
-0.0714276 0.127667 0.10419
-0.0755041 0.131023 0.112096
-0.090638 0.104774 0.132366
-0.0645477 0.109431 0.161848
-0.202741 0.764134 -0.170143
-0.22241 0.768353 -0.207684
-0.125595 0.840217 -0.405683
-0.119354 0.771316 -0.293565
-0.210485 0.762301 -0.182711
-0.214863 0.765794 -0.195295
-0.18154 0.790175 -0.242173
-0.188353 0.794391 -0.267946
-0.149941 0.820094 -0.332071
-0.156061 0.81853 -0.333552
-0.18028 0.763283 -0.208429
-0.184718 0.767848 -0.242179
-0.124889 0.819061 -0.372848
-0.148695 0.768607 -0.255966
-0.150397 0.768773 -0.270639
-0.122876 0.795972 -0.335616
-0.183869 0.792397 -0.257516
-0.181901 0.765268 -0.227424
-0.150418 0.791705 -0.290882
-0.153831 0.794477 -0.30462
-0.120497 0.835868 -0.370409
-0.137518 0.781177 -0.250823
-0.123598 0.83675 -0.380261
-0.123103 0.839841 -0.39762
-0.129916 0.817213 -0.331338
-0.12615 0.820104 -0.361943
-0.135543 0.798371 -0.288308
-0.131948 0.796471 -0.303758
-0.149757 0.815875 -0.302787
-0.161754 0.775681 -0.222785
-0.177884 0.789313 -0.226707
-0.181637 0.769784 -0.191304
-0.12828 0.8177 -0.344665
-0.152598 0.814882 -0.310032
-0.156922 0.794737 -0.259547
-0.153852 0.796237 -0.281953
-0.134617 0.775221 -0.262434
-0.125339 0.774225 -0.282706
-0.157734 0.771275 -0.237532
-0.127154 0.79681 -0.323373
-0.501237 0.815503 -0.510925
-0.479418 0.805222 -0.417529
-0.501801 0.820572 -0.436029
-0.485973 0.816138 -0.491789
-0.494348 0.812763 -0.470992
-0.506199 0.821599 -0.478843
-0.496133 0.818769 -0.506277
-0.489596 0.811068 -0.427662
-0.484903 0.81115 -0.454506
-0.494159 0.819978 -0.466703
-0.477259 0.801575 -0.46902
-0.490818 0.811621 -0.495624
-0.481348 0.808703 -0.480373
-0.478843 0.804403 -0.447654
-0.485569 0.800388 -0.487762
-0.490621 0.806345 -0.494623
-0.495199 0.810931 -0.504652
-0.482911 0.802163 -0.449458
-0.473295 0.799369 -0.40578
-0.480045 0.798642 -0.474533
-0.473216 0.79419 -0.457873
-0.486622 0.806941 -0.456262
-0.484448 0.805037 -0.483023
-0.474491 0.797826 -0.434156
-0.380816 0.679147 0.114352
-0.393419 0.710395 0.176667
-0.375527 0.570375 0.232908
-0.311509 0.664818 0.145029
-0.38654 0.688575 0.150354
-0.389194 0.6975 0.169145
-0.386876 0.638792 0.173481
-0.390796 0.666704 0.214541
-0.387575 0.601931 0.2132
-0.384859 0.62003 0.233283
-0.353343 0.67273 0.136051
-0.36043 0.708535 0.184614
-0.348689 0.612392 0.221068
-0.33279 0.67303 0.144126
-0.33313 0.693319 0.174052
-0.327306 0.643808 0.191817
-0.386863 0.652111 0.1981
-0.356667 0.690479 0.166754
-0.356246 0.640004 0.178161
-0.356231 0.661925 0.212454
-0.31913 0.626839 0.0956501
-0.312691 0.644629 0.113393
-0.313475 0.656774 0.130896
-0.348204 0.637179 0.101081
-0.367982 0.650591 0.110649
-0.337812 0.655994 0.125007
-0.415866 0.747094 -0.364648
-0.398749 0.745075 -0.397994
-0.442454 0.724741 -0.508192
-0.45107 0.782267 -0.51169
-0.407173 0.747737 -0.374093
-0.404466 0.746152 -0.389173
-0.421256 0.740935 -0.405777
-0.413068 0.7396 -0.431602
-0.432786 0.734329 -0.462378
-0.427662 0.732875 -0.46836
-0.426317 0.753721 -0.415166
-0.41655 0.757295 -0.431487
-0.445406 0.742435 -0.521374
-0.440762 0.767594 -0.474262
-0.433971 0.769811 -0.4694
-0.448236 0.761592 -0.522523
-0.417462 0.739903 -0.422109
-0.421771 0.755562 -0.426039
-0.434943 0.749619 -0.465663
-0.430899 0.750559 -0.474898
-0.442016 0.740065 -0.462593
-0.442465 0.734599 -0.477752
-0.443072 0.730714 -0.492967
-0.444898 0.754252 -0.48888
-0.449292 0.767794 -0.506072
-0.436471 0.743225 -0.436313
-0.429057 0.744393 -0.393015
-0.444972 0.749355 -0.503117
[...]
POINT_DATA 7842
SCALARS Norm_u float 1
LOOKUP_TABLE default
0.0061597 0.00514791 0.00512091 0.00566664 0.00536333 0.00554951 0.005238 0.00523155 0.00521985 0.00534626 0.00446617 0.00472107 0.0049265 0.00427606 0.00362088 0.00339361 0.00756238 0.00385816 0.00366778 0.0038469 0.00274762 0.00331158 0.0026874 0.00576182 0.00505317 0.00391934 0.00686658 0.00636849 0.00542223 0.00306609 0.00529561 0.00514196 0.00421981 0.00818011 0.00430588 0.00591669 0.00679067 0.00555062 0.00486507 0.00797377 0.00778405 0.00677937 0.00557608 0.138441 0.152062 0.0708515 0.192436 0.142148 0.147926 0.113871 0.124573 0.090971 0.097187 0.156134 0.16889 0.106971 0.176604 0.182409 0.147628 0.119195 0.163687 0.13232 0.137817 0.0580109 0.175425 0.0608349 0.0667156 0.0858866 0.101359 0.135624 0.137659 0.0775761 0.164071 0.111901 0.149284 0.0988183 0.087888 0.120257 0.12586 0.18185 0.187525 0.169678 0.142525 0.16886 0.164581 0.183527 0.171014 0.169791 0.175732 0.170084 0.180639 0.176425 0.174801 0.151886 0.154706 0.160712 0.163414 0.175891 0.16841 0.176519 0.178319 0.181744 0.170747 0.160641 0.171903 0.0245596 0.0274646 0.0426273 0.0255646 0.0271656 0.0304874 0.0339031 0.0381416 0.038876 0.0352659 0.0401584 0.0530001 0.0534831 0.0541443 0.0623929 0.0328622 0.0377362 0.0449402 0.0472259 0.0385829 0.0403086 0.0420648 0.0447611 0.0484376 0.0523172 0.0539724 0.033268 0.0455598 0.0279817 0.032409 0.047896 0.0350969 0.0388157 0.0413029 0.0469972 0.0581734 0.00476849 0.00509884 0.00499206 0.00492453 0.00503063 0.00511457 0.00460269 0.00442879 0.00476885 0.0138031 0.0131432 0.0198889 0.0138411 0.0136481 0.0174955 0.0157315 0.0224914 0.0199196 0.015059 0.0148138 0.0244027 0.0174414 0.0169027 0.0218941 0.0169598 0.0150144 0.0189554 0.0181332 0.0185761 0.0217209 0.0243827 0.0197998 0.0208532 0.020811 0.0169882 0.0168493 0.014976 0.0228025 0.0211256 0.018533 0.0196816 0.0188102 0.0196041 0.0167336 0.0213751 9.58543e-05 8.58902e-05 0.000228571 0.000199984 9.32541e-05 8.48945e-05 0.000112795 0.000111612 0.000164581 0.000160352 0.00011164 0.000111039 0.000172461 0.000134046 0.000125662 0.000156485 0.000111796 0.000112326 0.000128028 0.000132751 0.000184763 0.000144303 0.000203665 0.000211971 0.000160364 0.000184579 0.000143039 0.000161732 0.000137011 0.000110471 0.000102293 0.000103463 0.000172695 0.000145401 0.000119477 0.00012898 0.000165859 0.000175132 0.000121145 0.000162025 0.0600306 0.0751203 0.210254 0.138568 0.063825 0.0695364 0.102266 0.11535 0.160918 0.160108 0.0819044 0.0987506 0.188843 0.112565 0.119808 0.165108 0.110248 0.0912527 0.134257 0.14138 0.19069 0.114439 0.195751 0.20611 0.164294 0.182561 0.137102 0.145764 0.144291 0.094655 0.0951622 0.0747566 0.172131 0.147613 0.117042 0.129485 0.119942 0.132257 0.101946 0.157618 0.22219 0.167816 0.183769 0.20929 0.199646 0.207228 0.219193 0.175808 0.188923 0.19825 0.193703 0.211646 0.201389 0.183254 0.205023 0.2104 0.217142 0.184726 0.15984 0.196784 0.186128 0.189647 0.202927 0.174528 0.00717828 0.00809315 0.00623573 0.00939758 0.00732852 0.00771165 0.00582342 0.00742614 0.00578832 0.0069489 0.00787262 0.00950134 0.00744567 0.00877975 0.00992077 0.00841274 0.006741 0.00875493 0.00702614 0.00843349 0.00739416 0.00829611 0.00886995 0.00676379 0.00656638 0.00786015 0.123212 0.136268 0.197994 0.208277 0.12642 0.133105 0.143638 0.154904 0.173661 0.175481 0.15075 0.157807 0.207318 0.185179 0.181731 0.210728 0.151008 0.155703 0.177521 0.181623 0.176182 0.183501 0.190985 0.191891 0.203142 0.162161 0.139193 0.198652 0.165103 0.173296 0.00152238 0.00132805 0.00322611 0.000773138 0.00090233 0.00096668 0.00166148 0.00198529 0.00221062 0.00137588 0.00357668 0.00149639 0.00223541 0.00320832 0.00311247 0.0021453 0.105597 0.125381 0.0374362 0.112133 0.121001 0.115586 0.130265 0.127793 0.134025 0.0822956 0.0931073 0.104871 0.0572086 0.0635455 0.0712015 0.124325 0.0870361 0.0906622 0.0994292 0.0307766 0.0872739 0.103578 0.0517355 0.0600579 0.114934 0.0506542 0.110454 0.081892 0.0906703 0.120008 0.0811858 0.0900153 0.0332586 0.037007 0.0578636 0.0674025 0.0040501 0.00421149 0.00480016 0.00457281 0.00413969 0.00446536 0.00433465 0.00452906 0.00434471 0.00470788 0.00282013 0.00326559 0.00174277 0.00281291 0.0030028 0.00214529 0.00280076 0.00188215 0.00231922 0.00125313 0.00175856 0.00123308 0.000181612 0.000429428 0.000684071 0.00241284 0.0014092 0.00110985 0.00150088 0.000934262 0.00119278 0.00142908 0.000574548 0.000322497 0.00130918 0.00181876 0.000818616 0.00159644 0.000809383 0.000548291 0.000657352 0.00141147 0.0019241 0.00061293 0.000628176 0.00083558 0.00100165 0.0011436 0.00123897 0.00103309 0.00131251 0.00159658 0.0015277 0.00170233 0.00176959 0.000927827 0.00116133 0.00132728 0.00147304 0.0473049 0.048576 0.0482506 0.0490571 0.0677114 0.0741444 0.0998695 0.099635 0.0428192 0.045425 0.0400344 0.0416742 0.0712425 0.045326 0.0690991 0.06917 0.0809384 0.0591041 0.086907 0.0584836 0.0350541 0.0418612 0.0384346 0.0565336 0.00482241 0.00580538 0.0053439 0.00495629 0.00505855 0.00532181 0.00426173 0.00451506 0.00467532 0.00452518 0.00482605 0.00477676 0.00234654 0.00304361 0.00316843 0.00187655 0.00264184 0.00282184 0.00219805 0.0030651 0.00216062 0.00241211 0.000148806 0.000107788 0.000204638 0.000123641 0.000114957 0.000164272 0.00012296 0.000183236 0.000150328 0.000135213 0.00015391 0.000200353 0.000133715 0.000111255 0.00017669 0.00013081 0.000199811 0.000179586 0.000155799 0.000211457 0.00020455 0.000162348 0.00063013 0.000563222 0.00186555 0.000614508 0.00068162 0.00111656 0.00135125 0.00162382 0.00175173 0.000914822 0.000942182 0.00188566 0.00114682 0.00120733 0.00173339 0.00124343 0.000946313 0.00141072 0.00155436 0.000453379 0.000310184 0.000292735 0.00020823 0.000393426 0.000381498 0.000342396 0.000302335 0.00025912 0.000241501 0.000239489 0.000356868 0.0002324 0.000287553 0.000335667 0.00038367 0.000424656 0.000327163 0.00026659 0.000285918 0.00023016 0.00035606 0.000316075 0.000261641 0.0056604 0.00327252 0.00421165 0.00317487 0.00467303 0.00271902 0.00390895 0.00302141 0.00357459 0.014483 0.0181835 0.0421652 0.051559 0.0157249 0.0173036 0.0188452 0.0219099 0.0311504 0.0290602 0.0195421 0.024236 0.0467821 0.0355321 0.0338989 0.0499483 0.0219851 0.0241898 0.0309692 0.0321503 0.0397382 0.0410251 0.0464326 0.0270448 0.0171403 0.029787 0.0240118 0.0337706 0.0386965 0.0327213 0.0268925 0.0303784 0.0282714 0.036272 0.0318648 0.0357291 0.0190858 0.0247333 0.0310873 0.0210444 0.0228795 0.0239248 0.0350979 0.0271304 0.0283215 0.0310367 0.0199435 0.0223572 0.0262455 0.0255524 0.00426762 0.00442716 0.00498825 0.00519103 0.00435893 0.00364011 0.00381211 0.000605846 0.00112211 0.000953023 0.00109344 0.00173674 0.00150775 0.0568592 0.0676254 0.0556867 0.0591313 0.0663402 0.0526062 0.0658689 0.050836 0.061021 0.0596167 0.0699286 0.0525366 0.0585222 0.0659533 0.0539407 0.0594845 0.0651254 0.0540744 0.0632816 0.0463206 0.05204 0.0438093 0.0506806 0.0492621 0.04713 0.0514424 0.0532119 0.0541695 0.0548859 0.0532986 0.0558128 0.0483439 0.0443502 0.0568558 0.0500858 0.0487584 0.000271061 0.000409406 0.000212917 0.000365332 0.000293905 0.000439087 0.000513209 0.000308743 0.000417152 0.000612056 0.000322876 0.000374785 0.00029342 0.000441185 0.000113729 0.000219161 0.000160292 0.0012175 0.000836581 0.00107722 0.00160949 0.00199185 0.00140405 0.00121177 0.00128697 0.00131171 0.000198308 0.000202115 0.000161334 0.000184208 0.000204771 0.00029486 0.000319728 0.00013035 0.000186828 0.000150572 0.000211216 0.00023867 0.0013652 0.0017886 0.00290401 0.00152252 0.00165282 0.00157002 0.00194669 0.00177934 0.00199699 0.00197767 0.00233965 0.00228273 0.00253042 0.00270545 0.00261273 0.0017961 0.0021908 0.0020797 0.002362 3.72529e-09 3.72529e-09 4.82962e-05 3.13612e-06 3.72529e-09 3.72529e-09 1.246e-05 3.72529e-09 2.3899e-05 1.82961e-05 3.72529e-09 3.72529e-09 3.76057e-05 3.72529e-09 3.72529e-09 2.5379e-05 8.20054e-06 3.72529e-09 1.15127e-05 1.00282e-05 0.000114925 9.9385e-05 6.86088e-05 6.58731e-05 2.38675e-05 4.38174e-05 0.000520949 0.000286871 0.000302079 0.000413904 0.000432729 0.00054662 0.000650671 0.00104067 0.0011667 0.00119215 0.00143562 0.000298103 0.000605351 0.000783039 0.00084066 0.000419964 0.000461641 0.000480059 0.00065058 0.000685662 0.000987404 0.000952757 0.000360096 0.000913223 0.000235893 0.000484434 0.000686982 0.000396045 0.000602594 0.000610093 0.0010057 0.00117665 0.149682 0.146278 0.154857 0.149583 0.148593 0.152649 0.14942 0.154236 0.152197 0.151526 0.168582 0.133841 0.147558 0.153712 0.158338 0.179873 0.189626 0.141478 0.161915 0.167641 0.170348 0.172522 0.156432 0.179946 0.00266032 0.00239077 0.00210813 0.0028716 0.00295235 0.00260889 0.226025 0.197054 0.211516 0.216603 0.222695 0.225413 0.224131 0.204471 0.213292 0.22128 0.215242 0.218483 0.223066 0.212628 0.221478 0.208657 0.213582 0.205043 0.189636 0.216372 0.209588 0.201324 0.207256 0.219458 0.00116869 0.00146616 0.000897131 0.00112264 0.00131452 0.00137271 0.00164487 0.000854331 0.00115763 0.000924141 0.00133646 0.000279964 0.000376823 0.000251754 0.000244496 0.000273907 0.000386913 0.000275657 0.000279976 0.000298677 0.000210699 0.000333541 0.000222939 0.0100555 0.0112644 0.0111022 0.0155928 0.0149597 0.00869645 0.00817782 0.0156204 0.00938301 0.00908497 0.0126626 0.0113712 0.00855913 0.0117154 0.0118137 0.00873293 0.0147085 0.0161368 0.0108366 0.0116725 0.0138715 0.00872087 0.0103268 0.00867881 0.0149414 0.0142954 0.0111445 0.0120468 0.00914244 0.00964776 0.00898832 0.0123991 0.00359952 0.00339198 0.003486 0.00388102 0.00402156 0.00440112 0.00441624 0.0039773 0.00316092 0.00341362 0.00353432 0.00347141 0.00379917 0.0037543 0.00400914 0.00371376 0.00421882 0.00449444 0.00480077 0.00432137 0.00493528 0.00403356 0.00473506 0.00431449 0.00457612 0.00363243 0.00416282 0.00397356 0.0152506 0.0236534 0.0148089 0.0179916 0.0154317 0.0168522 0.0163941 0.0194253 0.0170031 0.0207818 0.0210102 0.0194796 0.0161944 0.0182526 0.0171482 0.0184087 0.014793 0.0148935 0.0151069 0.0177197 0.0211332 0.0143773 0.0140674 0.0174283 0.014845 0.0174937 0.0272914 0.0257144 0.0264075 0.0208717 0.015511 0.0212426 0.0167901 0.0199164 0.0206039 0.0168813 0.190293 0.165411 0.173787 0.180654 0.182355 0.187802 0.185533 0.170098 0.176777 0.179291 0.182647 0.18486 0.188239 0.178869 0.186337 0.176961 0.18051 0.172335 0.1599 0.182244 0.174493 0.170935 0.174736 0.183339 0.00206815 0.00260297 0.00114724 0.00225313 0.00244575 0.00166049 0.00215643 0.00134798 0.00165883 0.00191482 0.00129582 0.00211521 0.0018455 0.00165783 0.00193262 0.00150756 0.00204309 0.00169223 0.00194936 0.00181787 0.020556 0.0226202 0.0211087 0.0220423 0.0281175 0.0301561 0.0405391 0.038822 0.0205538 0.0239364 0.0223094 0.0241276 0.0296207 0.0223913 0.02978 0.0305051 0.0359092 0.0256795 0.0370467 0.0262713 0.0194134 0.0200348 0.0202958 0.0255925 0.000572575 0.000616982 0.00078391 0.00108561 0.000518331 0.000599655 0.00053373 0.000772155 0.000493442 0.000440464 0.000556063 0.000740832 0.0856723 0.0928013 0.0884262 0.0889282 0.0915905 0.0842756 0.0921986 0.0871799 0.0907152 0.107274 0.117319 0.110246 0.134296 0.137073 0.131332 0.0886695 0.112687 0.110829 0.114205 0.105048 0.12111 0.121142 0.0992001 0.10389 0.124021 0.12601 0.00422845 0.00463234 0.00363154 0.00309107 0.00341143 0.00308672 0.00361401 0.00339962 0.00360141 0.00340386 0.00347455 0.00326947 0.00347539 0.00345694 0.00325644 0.00395954 0.00346715 0.00424524 0.00398886 0.00373011 0 3.62577e-06 8.16503e-05 8.79293e-05 3.49441e-05 5.67737e-05 0.000105948 0.000102384 0 5.35989e-05 6.56611e-05 4.58135e-06 7.57622e-05 9.7336e-05 4.7196e-05 6.12109e-05 3.42722e-05 2.3022e-05 7.72832e-06 6.93531e-05 9.82298e-05 6.48701e-05 0.00697845 0.00734372 0.00751439 0.00767663 0.00848382 0.00787756 0.00688972 0.00714492 0.00780096 0.0111399 0.00906354 0.0115932 0.00922839 0.0106 0.012097 0.0104498 0.0106074 0.00839591 0.0101922 0.006626 0.00531638 0.00462702 0.00594237 0.00656149 0.00463356 0.00595019 0.00456733 0.00605571 0.00663408 0.00554149 0.00554561 0.00704764 0.00877569 0.00816692 0.00212227 0.00205505 0.00241961 0.00226059 0.00236915 0.00208396 0.0021885 0.00206258 0.00221473 0.00184083 0.00197422 0.00205061 0.00189518 0.00197257 0.00201127 0 0 0 3.70499e-05 6.96097e-05 4.36045e-05 0.0105097 0.0124839 0.0132844 0.0145762 0.0151886 0.0155237 0.0116249 0.0123661 0.0136792 0.0121631 0.0131858 0.0111292 0.00867479 0.0108104 0.0125121 0.0143105 0.00222139 0.00213161 0.00200732 0.00214438 0.00187453 0.00201192 0.00187441 0.00201713 0.149392 0.154552 0.152653 0.158554 0.156985 0.161686 0.16212 0.158525 0.141261 0.143321 0.146092 0.145142 0.152877 0.148369 0.153349 0.149489 0.15742 0.000414851 0.000215279 0.000143717 0.000241399 0.00027829 0.000225051 0.000355314 0.000215071 0.000208394 0.000198265 0.000231341 1.49012e-08 1.49012e-08 6.22021e-05 1.49012e-08 1.49012e-08 0.000233367 8.75818e-05 0.000125195 1.49012e-08 0.000450955 0.000363114 0.000311552 0.000190809 0.000454734 0.000112611 0.000414333 0.000215945 0.000468126 0.000340217 0.000471724 0.000396384 0.000257337 0.000334107 0.000440504 0.000282153 0.000228109 0.000129856 0.000193356 7.61241e-05 0.00594933 0.00598328 0.00814301 0.00818337 0.00594116 0.0072414 0.00705803 0.00736813 0.00692094 0.00543674 0.00729606 0.00703421 0.0248901 0.017349 0.0163269 0.0212122 0.0200661 0.0259251 0.0267612 0.0172015 0.0213842 0.0201293 0.0194087 0.0215605 0.0233579 0.0206592 0.0238329 0.0227723 0.0237433 0.0172545 0.0151212 0.0225976 0.0192038 0.0189442 0.020509 0.0253172 0.155866 0.1607 0.15771 0.000293225 0.00016984 0.000553366 0 0.000239766 0.000198443 0.000384161 0.000275336 0.000507146 0.000400065 0.000173146 0.00012657 0.000385209 8.55768e-05 7.87111e-05 0.000224929 0.000340624 0.000152129 0.000289801 0.000243061 4.08471e-05 1.49012e-08 1.49012e-08 1.00753e-05 1.49012e-08 2.66765e-05 1.49012e-08 9.78018e-06 1.49012e-08 3.56517e-05 0 0 7.02472e-06 0 0 1.49012e-08 0 1.94244e-05 0 0.226485 0.215787 0.225892 0.214629 0.219964 0.217873 0.22541 0.216067 0.2217 0.225557 0.222118 0.220196 0.222047 0.218384 0.223617 0.209718 0.211711 0.211808 0.212402 0.214422 0.213317 0.214108 0.220093 0.216737 0.216913 0.205202 0.221552 0.220732 0.23153 0.210002 0.216979 0.209885 0.220019 0.215422 0.219677 0.214414 0.225355 0.224623 0.224878 0.228701 0.228255 0.215249 0.220832 0.219528 0.224376 0.209728 0.21275 0.216854 0.207055 0.204779 0.210608 0.00385977 0.00399018 0.00104992 0.00111549 0.00118611 0.0013985 0.00167096 0.00143175 0.00179014 0.00205975 0.00198555 0.0617473 0.074273 0.117594 0.0645012 0.0694258 0.0761778 0.0893039 0.0962909 0.103358 0.0872474 0.0930179 0.118279 0.1192 0.118663 0.129273 0.0826529 0.0910135 0.103307 0.105717 0.0942461 0.101123 0.109594 0.111052 0.128652 0.0834745 0.0705033 0.115244 0.088447 0.102603 0.113838 0.0840065 0.124313 0.108051 0.113159 0.124578 0.0998289 0.000174987 0 0.000138685 7.76178e-05 0.000279479 0.000203823 0.000386642 0.000350505 0.000205069 0.000147829 0.000216915 0.000217649 0.000262032 0.000184285 0.000283088 0.000276899 0.000334383 0.000190039 0.000241637 0.000198294 0.000350673 0.000241146 0.000291772 0.000208885 0.237505 0.231022 0.236311 0.230714 0.236259 0.227013 0.23416 0.230439 0.233856 0.147744 0.148661 0.151231 0.237069 0.239071 0.234016 0.00178642 0.0021362 0.00191149 0.00201674 0.00173557 0.00196058 0.00193505 0.00200068 0.00197139 0.00215906 0.00225627 0.00206858 0.00215895 0.00220966 0.00187823 0.00206821 0.00196418 0.00211804 0.00207476 0.00188905 0.00184425 0.001763 0.00179145 0.00197605 0.00205968 0.0320085 0.0388415 0.0246805 0.0263692 0.0291506 0.0379491 0.0309122 0.0244568 0.0786348 0.0841582 0.116694 0.115848 0.0761823 0.0864689 0.115275 0.116824 0.083457 0.0823928 0.113501 0.116299 0.110713 0.0755942 0.110543 0.00365574 0.00262468 0.00235802 0.00332938 0.00270676 0.00357608 0.00321536 0.0030018 0.00233495 0.00308018 0.00253642 0.00302202 0.00327082 0.00347261 0.00256861 0.00204213 0.00280174 0.0016731 0.00191429 0.00187237 0.171907 0.17694 0.159374 0.163311 0.190922 0.194087 0.175903 0.204543 0.204407 0.199821 0.174349 0.192817 0.181291 0.18514 0.167135 0.19618 0.154644 0.170576 0.171847 0.158568 0.181478 0.198596 0.188191 0.188653 0.162067 0.2002 0.190998 0.179767 0.00270741 0.00321394 0.00257232 0.00272425 0.00217345 0.00235078 0.0026144 0.00273565 0.00232758 0.00213625 0.002291 0.00295033 0.00467655 0.00497623 0.00573191 0.00460115 0.00472701 0.00494529 0.00576671 0.00540103 0.00589654 0.003702 0.00413198 0.00521495 0.00338167 0.00368919 0.00439708 0.0053729 0.00390482 0.00437558 0.00495013 0.00510791 0.00409961 0.0031939 0.00389336 0.00445481 0.00325411 0.00418139 0.00399853 0.00426605 0.00381828 0.0652697 0.050384 0.0575717 0.0598271 0.05549 0.0535003 0.0536072 0.0561066 0.0609535 0.0489409 0.0565482 0.0436338 0.0459557 0.0508809 0.0508271 0.16666 0.169812 0.158433 0.160621 0.0807432 0.0950661 0.118079 0.121575 0.0914293 0.0855003 0.0938278 0.0810449 0.0619724 0.0587517 0.0536831 0.0569581 0.0532923 0.0600621 0.0527352 0.0535659 0.0555656 0.0485657 0.0507998 0.0578485 0.00200965 0.00209052 0.00232968 0.0516768 0.0618999 0.071843 0.0689008 0.0603665 0.0575851 0.0665829 0.0548277 0.0590465 0.061126 0.0631656 0.0447194 0.0491344 0.0799861 0.0804728 0.0364366 0.0398551 0.0571038 0.0563586 0.0492984 0.0393031 0.0646922 0.068403 0.0695182 0.050602 0.04222 0.0362958 0.0717022 0.0587672 0.0625361 0.0516973 0.0474501 0.047035 0.0124648 0.0138742 0.0138236 0.0149131 0.0116516 0.01288 0.0126603 0.0133513 0.0587694 0.0619921 0.0665946 0.0682071 0.0622323 0.0624708 0.0653941 0.0591375 0.0595636 0.0565014 0.0623162 0.0557849 0.00468662 0.00410355 0.00477725 0.00446002 0.00442064 1.49012e-08 1.49012e-08 1.49012e-08 0 0 0 0.00322977 0.00185161 0.000798504 0.00106252 0.000687602 0.000847457 0.000943756 0.00393466 0.00332585 0.0039301 0.00374349 0.00414026 0.0033302 0.00260286 0.00363493 0.00285686 0.00327227 0.00258279 0.00307391 0.00348136 0.00248913 0.00214316 0.00270481 0.00266511 0.00289438 0.0032287 0.00221128 0.00157641 0.00215496 0.00192281 0.0019288 0.192515 0.201848 0.208732 0.21224 0.198827 0.20575 0.2076 0.197939 0.188846 0.19783 0.201146 0.201718 0.000297046 0.000245444 0.000565347 0.000800945 0.000275032 0.000252342 0.000366378 0.000242736 0.000462351 0.000306907 0.000333312 0.000274972 0.000517462 0.000531104 0.00042801 0.000617691 0.000283437 0.000295621 0.000443731 0.000320449 0.000556457 0.000560762 0.000571283 0.000613702 0.000660206 0.00050809 0.000373056 0.000595905 0.000466254 0.000494098 0.000611846 0.000664008 0.000711458 0.000438087 0.000288396 0.000637471 0.000607087 0.000465375 0.000655483 0.000501109 8.24511e-06 3.72529e-09 0 7.7595e-05 3.72529e-09 3.72529e-09 1.78102e-05 3.72529e-09 1.96834e-05 0 2.70455e-05 3.72529e-09 3.72529e-09 4.34962e-05 0 3.72529e-09 3.72529e-09 3.72529e-09 3.72529e-09 3.72529e-09 0.000131403 7.13927e-05 4.19307e-05 9.04295e-05 6.27457e-05 0.00013423 9.85295e-05 4.53445e-05 6.70974e-05 7.32664e-05 9.63302e-05 6.7243e-05 7.29593e-05 8.68257e-05 9.01408e-05 5.54052e-05 0.000110911 7.26498e-05 7.2951e-05 0.000120425 0.130707 0.139328 0.0846213 0.0887544 0.164281 0.179143 0.0751029 0.152424 0.160492 0.106796 0.134785 0.172352 0.119625 0.125819 0.0657272 0.103207 0.0764778 0.12935 0.0711566 0.0835614 0.113986 0.138261 0.159 0.0924669 0.0611342 0.146127 0.0950201 0.105869 0.0363279 0.0418595 0.0413124 0.0438131 0.0399331 0.0664416 0.0745618 0.0356969 0.0330803 0.0592312 0.0683821 0.0389751 0.00515562 0.00457869 0.00438284 0.00469223 0.0031431 0.00393307 0.00452385 0.00239618 0.00363399 0.00182737 0.00244761 0.00307015 0.00320504 0.00233509 0.00331624 0.000195443 7.8302e-05 0 9.78869e-05 0 0.000101793 5.98782e-05 3.02313e-05 6.80551e-05 3.72529e-09 0.000223508 0.000196199 0.000200683 7.96741e-05 8.3094e-05 6.80597e-05 3.92699e-05 0.000154655 0.00015042 6.84614e-05 0.00012547 5.78913e-05 7.02868e-05 4.64456e-05 0.225142 0.211823 0.223443 0.230867 0.220565 0.224689 0.228739 0.218346 0.221653 0.227423 0.214474 0.227698 0.220733 0.210448 0.206444 0.217943 0.217641 0.222582 0.214247 0.225017 1.49012e-08 1.49012e-08 2.83814e-05 8.9699e-05 1.49012e-08 9.79512e-05 