# vtk DataFile Version 5.1
vtk output
ASCII
DATASET UNSTRUCTURED_GRID
POINTS 61 float
0 0 0 1 0 0 2 0 0 
3 0 0 4 0 0 0 0.5 0 
1 0.5 0 2 0.5 0 3 0.5 0 
4 0.5 0 0 1 0 1 1 0 
2 1 0 3 1 0 4 1 0 
0 0 0.5 1 0 0.5 2 0 0.5 
3 0 0.5 4 0 0.5 0 0.5 0.5 
1 0.5 0.5 2 0.5 0.5 3 0.5 0.5 
4 0.5 0.5 0 1 0.5 1 1 0.5 
2 1 0.5 3 1 0.5 4 1 0.5 
0 0 1 1 0 1 2 0 1 
3 0 1 4 0 1 0 0.5 1 
1 0.5 1 2 0.5 1 3 0.5 1 
4 0.5 1 0 1 1 1 1 1 
2 1 1 3 1 1 4 1 1 
0.5 0.25 0.25 1.5 0.25 0.25 2.5 0.25 0.25 
3.5 0.25 0.25 0.5 0.75 0.25 1.5 0.75 0.25 
2.5 0.75 0.25 3.5 0.75 0.25 0.5 0.25 0.75 
1.5 0.25 0.75 2.5 0.25 0.75 3.5 0.25 0.75 
0.5 0.75 0.75 1.5 0.75 0.75 2.5 0.75 0.75 
3.5 0.75 0.75 
METADATA
INFORMATION 2
NAME L2_NORM_RANGE LOCATION vtkDataArray
DATA 2 0 4.24264 
NAME L2_NORM_FINITE_RANGE LOCATION vtkDataArray
DATA 2 0 4.24264 

CELLS 193 768
OFFSETS vtktypeint64
0 4 8 12 16 20 24 28 32 
36 40 44 48 52 56 60 64 68 
72 76 80 84 88 92 96 100 104 
108 112 116 120 124 128 132 136 140 
144 148 152 156 160 164 168 172 176 
180 184 188 192 196 200 204 208 212 
216 220 224 228 232 236 240 244 248 
252 256 260 264 268 272 276 280 284 
288 292 296 300 304 308 312 316 320 
324 328 332 336 340 344 348 352 356 
360 364 368 372 376 380 384 388 392 
396 400 404 408 412 416 420 424 428 
432 436 440 444 448 452 456 460 464 
468 472 476 480 484 488 492 496 500 
504 508 512 516 520 524 528 532 536 
540 544 548 552 556 560 564 568 572 
576 580 584 588 592 596 600 604 608 
612 616 620 624 628 632 636 640 644 
648 652 656 660 664 668 672 676 680 
684 688 692 696 700 704 708 712 716 
720 724 728 732 736 740 744 748 752 
756 760 764 768 
CONNECTIVITY vtktypeint64
0 1 6 45 0 6 5 45 21 
16 15 45 21 15 20 45 1 16 
21 45 1 21 6 45 0 15 16 
45 0 16 1 45 0 5 20 45 
0 20 15 45 21 20 5 45 21 
5 6 45 1 2 7 46 1 7 
6 46 22 17 16 46 22 16 21 
46 2 17 22 46 2 22 7 46 
1 16 17 46 1 17 2 46 1 
6 21 46 1 21 16 46 22 21 
6 46 22 6 7 46 2 3 8 
47 2 8 7 47 23 18 17 47 
23 17 22 47 3 18 23 47 3 
23 8 47 2 17 18 47 2 18 
3 47 2 7 22 47 2 22 17 
47 23 22 7 47 23 7 8 47 
3 4 9 48 3 9 8 48 24 
19 18 48 24 18 23 48 4 19 
24 48 4 24 9 48 3 18 19 
48 3 19 4 48 3 8 23 48 
3 23 18 48 24 23 8 48 24 
8 9 48 5 6 11 49 5 11 
10 49 26 21 20 49 26 20 25 
49 6 21 26 49 6 26 11 49 
5 20 21 49 5 21 6 49 5 
10 25 49 5 25 20 49 26 25 
10 49 26 10 11 49 6 7 12 
50 6 12 11 50 27 22 21 50 
27 21 26 50 7 22 27 50 7 
27 12 50 6 21 22 50 6 22 
7 50 6 11 26 50 6 26 21 
50 27 26 11 50 27 11 12 50 
7 8 13 51 7 13 12 51 28 
23 22 51 28 22 27 51 8 23 
28 51 8 28 13 51 7 22 23 
51 7 23 8 51 7 12 27 51 
7 27 22 51 28 27 12 51 28 
12 13 51 8 9 14 52 8 14 
13 52 29 24 23 52 29 23 28 
52 9 24 29 52 9 29 14 52 
8 23 24 52 8 24 9 52 8 
13 28 52 8 28 23 52 29 28 
13 52 29 13 14 52 15 16 21 
53 15 21 20 53 36 31 30 53 
36 30 35 53 16 31 36 53 16 
36 21 53 15 30 31 53 15 31 
16 53 15 20 35 53 15 35 30 
53 36 35 20 53 36 20 21 53 
16 17 22 54 16 22 21 54 37 
32 31 54 37 31 36 54 17 32 
37 54 17 37 22 54 16 31 32 
54 16 32 17 54 16 21 36 54 
16 36 31 54 37 36 21 54 37 
21 22 54 17 18 23 55 17 23 
22 55 38 33 32 55 38 32 37 
55 18 33 38 55 18 38 23 55 
17 32 33 55 17 33 18 55 17 
22 37 55 17 37 32 55 38 37 
22 55 38 22 23 55 18 19 24 
56 18 24 23 56 39 34 33 56 
39 33 38 56 19 34 39 56 19 
39 24 56 18 33 34 56 18 34 
19 56 18 23 38 56 18 38 33 
56 39 38 23 56 39 23 24 56 
20 21 26 57 20 26 25 57 41 
36 35 57 41 35 40 57 21 36 
41 57 21 41 26 57 20 35 36 
57 20 36 21 57 20 25 40 57 
20 40 35 57 41 40 25 57 41 
25 26 57 21 22 27 58 21 27 
26 58 42 37 36 58 42 36 41 
58 22 37 42 58 22 42 27 58 
21 36 37 58 21 37 22 58 21 
26 41 58 21 41 36 58 42 41 
26 58 42 26 27 58 22 23 28 
59 22 28 27 59 43 38 37 59 
43 37 42 59 23 38 43 59 23 
43 28 59 22 37 38 59 22 38 
23 59 22 27 42 59 22 42 37 
59 43 42 27 59 43 27 28 59 
23 24 29 60 23 29 28 60 44 
39 38 60 44 38 43 60 24 39 
44 60 24 44 29 60 23 38 39 
60 23 39 24 60 23 28 43 60 
23 43 38 60 44 43 28 60 44 
28 29 60 
CELL_TYPES 192
10
10
10
10
10
10
10
10
10
10
10
10
10
10
10
10
10
10
10
10
10
10
10
10
10
10
10
10
10
10
10
10
10
10
10
10
10
10
10
10
10
10
10
10
10
10
10
10
10
10
10
10
10
10
10
10
10
10
10
10
10
10
10
10
10
10
10
10
10
10
10
10
10
10
10
10
10
10
10
10
10
10
10
10
10
10
10
10
10
10
10
10
10
10
10
10
10
10
10
10
10
10
10
10
10
10
10
10
10
10
10
10
10
10
10
10
10
10
10
10
10
10
10
10
10
10
10
10
10
10
10
10
10
10
10
10
10
10
10
10
10
10
10
10
10
10
10
10
10
10
10
10
10
10
10
10
10
10
10
10
10
10
10
10
10
10
10
10
10
10
10
10
10
10
10
10
10
10
10
10
10
10
10
10
10
10
10
10
10
10
10
10

POINT_DATA 61
FIELD FieldData 2
DistanceToCenter 1 61 float
2.44949 1.73205 1.41421 1.73205 2.44949 2.23607 1.41421 1 1.41421 
2.23607 2.44949 1.73205 1.41421 1.73205 2.44949 2.23607 1.41421 1 
1.41421 2.23607 2 1 0 1 2 2.23607 1.41421 
1 1.41421 2.23607 2.44949 1.73205 1.41421 1.73205 2.44949 2.23607 
1.41421 1 1.41421 2.23607 2.44949 1.73205 1.41421 1.73205 2.44949 
1.65831 0.866025 0.866025 1.65831 1.65831 0.866025 0.866025 1.65831 1.65831 
0.866025 0.866025 1.65831 1.65831 0.866025 0.866025 1.65831 
Polynomial 1 61 float
1 2 3 4 5 2 3 4 5 
6 3 4 5 6 7 2 3 4 
5 6 3 4 5 6 7 4 5 
6 7 8 3 4 5 6 7 4 
5 6 7 8 5 6 7 8 9 
1 2 3 4 2 3 4 5 2 
3 4 5 3 4 5 6 
