# vtk DataFile Version 5.1
vtk output
ASCII
DATASET UNSTRUCTURED_GRID
POINTS 113 float
0 0 0 0.5 0 0 1 0 0 
1.5 0 0 2 0 0 2.5 0 0 
3 0 0 3.5 0 0 4 0 0 
0 0.5 0 0.5 0.5 0 1 0.5 0 
1.5 0.5 0 2 0.5 0 2.5 0.5 0 
3 0.5 0 3.5 0.5 0 4 0.5 0 
0 1 0 0.5 1 0 1 1 0 
1.5 1 0 2 1 0 2.5 1 0 
3 1 0 3.5 1 0 4 1 0 
0 0 0.5 0.5 0 0.5 1 0 0.5 
1.5 0 0.5 2 0 0.5 2.5 0 0.5 
3 0 0.5 3.5 0 0.5 4 0 0.5 
0 0.5 0.5 0.5 0.5 0.5 1 0.5 0.5 
1.5 0.5 0.5 2 0.5 0.5 2.5 0.5 0.5 
3 0.5 0.5 3.5 0.5 0.5 4 0.5 0.5 
0 1 0.5 0.5 1 0.5 1 1 0.5 
1.5 1 0.5 2 1 0.5 2.5 1 0.5 
3 1 0.5 3.5 1 0.5 4 1 0.5 
0 0 1 0.5 0 1 1 0 1 
1.5 0 1 2 0 1 2.5 0 1 
3 0 1 3.5 0 1 4 0 1 
0 0.5 1 0.5 0.5 1 1 0.5 1 
1.5 0.5 1 2 0.5 1 2.5 0.5 1 
3 0.5 1 3.5 0.5 1 4 0.5 1 
0 1 1 0.5 1 1 1 1 1 
1.5 1 1 2 1 1 2.5 1 1 
3 1 1 3.5 1 1 4 1 1 
0.25 0.25 0.25 0.75 0.25 0.25 1.25 0.25 0.25 
1.75 0.25 0.25 2.25 0.25 0.25 2.75 0.25 0.25 
3.25 0.25 0.25 3.75 0.25 0.25 0.25 0.75 0.25 
0.75 0.75 0.25 1.25 0.75 0.25 1.75 0.75 0.25 
2.25 0.75 0.25 2.75 0.75 0.25 3.25 0.75 0.25 
3.75 0.75 0.25 0.25 0.25 0.75 0.75 0.25 0.75 
1.25 0.25 0.75 1.75 0.25 0.75 2.25 0.25 0.75 
2.75 0.25 0.75 3.25 0.25 0.75 3.75 0.25 0.75 
0.25 0.75 0.75 0.75 0.75 0.75 1.25 0.75 0.75 
1.75 0.75 0.75 2.25 0.75 0.75 2.75 0.75 0.75 
3.25 0.75 0.75 3.75 0.75 0.75 
METADATA
INFORMATION 2
NAME L2_NORM_RANGE LOCATION vtkDataArray
DATA 2 0 4.24264 
NAME L2_NORM_FINITE_RANGE LOCATION vtkDataArray
DATA 2 0 4.24264 

CELLS 385 1536
OFFSETS vtktypeint64
0 4 8 12 16 20 24 28 32 
36 40 44 48 52 56 60 64 68 
72 76 80 84 88 92 96 100 104 
108 112 116 120 124 128 132 136 140 
144 148 152 156 160 164 168 172 176 
180 184 188 192 196 200 204 208 212 
216 220 224 228 232 236 240 244 248 
252 256 260 264 268 272 276 280 284 
288 292 296 300 304 308 312 316 320 
324 328 332 336 340 344 348 352 356 
360 364 368 372 376 380 384 388 392 
396 400 404 408 412 416 420 424 428 
432 436 440 444 448 452 456 460 464 
468 472 476 480 484 488 492 496 500 
504 508 512 516 520 524 528 532 536 
540 544 548 552 556 560 564 568 572 
576 580 584 588 592 596 600 604 608 
612 616 620 624 628 632 636 640 644 
648 652 656 660 664 668 672 676 680 
684 688 692 696 700 704 708 712 716 
720 724 728 732 736 740 744 748 752 
756 760 764 768 772 776 780 784 788 
792 796 800 804 808 812 816 820 824 
828 832 836 840 844 848 852 856 860 
864 868 872 876 880 884 888 892 896 
900 904 908 912 916 920 924 928 932 
936 940 944 948 952 956 960 964 968 
972 976 980 984 988 992 996 1000 1004 
1008 1012 1016 1020 1024 1028 1032 1036 1040 
1044 1048 1052 1056 1060 1064 1068 1072 1076 
1080 1084 1088 1092 1096 1100 1104 1108 1112 
1116 1120 1124 1128 1132 1136 1140 1144 1148 
1152 1156 1160 1164 1168 1172 1176 1180 1184 
1188 1192 1196 1200 1204 1208 1212 1216 1220 
1224 1228 1232 1236 1240 1244 1248 1252 1256 
1260 1264 1268 1272 1276 1280 1284 1288 1292 
1296 1300 1304 1308 1312 1316 1320 1324 1328 
1332 1336 1340 1344 1348 1352 1356 1360 1364 
1368 1372 1376 1380 1384 1388 1392 1396 1400 
1404 1408 1412 1416 1420 1424 1428 1432 1436 
1440 1444 1448 1452 1456 1460 1464 1468 1472 
1476 1480 1484 1488 1492 1496 1500 1504 1508 
1512 1516 1520 1524 1528 1532 1536 
CONNECTIVITY vtktypeint64
0 1 10 81 0 10 9 81 37 
28 27 81 37 27 36 81 1 28 
37 81 1 37 10 81 0 27 28 
81 0 28 1 81 0 9 36 81 
0 36 27 81 37 36 9 81 37 
9 10 81 1 2 11 82 1 11 
10 82 38 29 28 82 38 28 37 
82 2 29 38 82 2 38 11 82 
1 28 29 82 1 29 2 82 1 
10 37 82 1 37 28 82 38 37 
10 82 38 10 11 82 2 3 12 
83 2 12 11 83 39 30 29 83 
39 29 38 83 3 30 39 83 3 
39 12 83 2 29 30 83 2 30 
3 83 2 11 38 83 2 38 29 
83 39 38 11 83 39 11 12 83 
3 4 13 84 3 13 12 84 40 
31 30 84 40 30 39 84 4 31 
40 84 4 40 13 84 3 30 31 
84 3 31 4 84 3 12 39 84 
3 39 30 84 40 39 12 84 40 
12 13 84 4 5 14 85 4 14 
13 85 41 32 31 85 41 31 40 
85 5 32 41 85 5 41 14 85 
4 31 32 85 4 32 5 85 4 
13 40 85 4 40 31 85 41 40 
13 85 41 13 14 85 5 6 15 
86 5 15 14 86 42 33 32 86 
42 32 41 86 6 33 42 86 6 
42 15 86 5 32 33 86 5 33 
6 86 5 14 41 86 5 41 32 
86 42 41 14 86 42 14 15 86 
6 7 16 87 6 16 15 87 43 
34 33 87 43 33 42 87 7 34 
43 87 7 43 16 87 6 33 34 
87 6 34 7 87 6 15 42 87 
6 42 33 87 43 42 15 87 43 
15 16 87 7 8 17 88 7 17 
16 88 44 35 34 88 44 34 43 
88 8 35 44 88 8 44 17 88 
7 34 35 88 7 35 8 88 7 
16 43 88 7 43 34 88 44 43 
16 88 44 16 17 88 9 10 19 
89 9 19 18 89 46 37 36 89 
46 36 45 89 10 37 46 89 10 
46 19 89 9 36 37 89 9 37 
10 89 9 18 45 89 9 45 36 
89 46 45 18 89 46 18 19 89 
10 11 20 90 10 20 19 90 47 
38 37 90 47 37 46 90 11 38 
47 90 11 47 20 90 10 37 38 
90 10 38 11 90 10 19 46 90 
10 46 37 90 47 46 19 90 47 
19 20 90 11 12 21 91 11 21 
20 91 48 39 38 91 48 38 47 
91 12 39 48 91 12 48 21 91 
11 38 39 91 11 39 12 91 11 
20 47 91 11 47 38 91 48 47 
20 91 48 20 21 91 12 13 22 
92 12 22 21 92 49 40 39 92 
49 39 48 92 13 40 49 92 13 
49 22 92 12 39 40 92 12 40 
13 92 12 21 48 92 12 48 39 
92 49 48 21 92 49 21 22 92 
13 14 23 93 13 23 22 93 50 
41 40 93 50 40 49 93 14 41 
50 93 14 50 23 93 13 40 41 
93 13 41 14 93 13 22 49 93 
13 49 40 93 50 49 22 93 50 
22 23 93 14 15 24 94 14 24 
23 94 51 42 41 94 51 41 50 
94 15 42 51 94 15 51 24 94 
14 41 42 94 14 42 15 94 14 
23 50 94 14 50 41 94 51 50 
23 94 51 23 24 94 15 16 25 
95 15 25 24 95 52 43 42 95 
52 42 51 95 16 43 52 95 16 
52 25 95 15 42 43 95 15 43 
16 95 15 24 51 95 15 51 42 
95 52 51 24 95 52 24 25 95 
16 17 26 96 16 26 25 96 53 
44 43 96 53 43 52 96 17 44 
53 96 17 53 26 96 16 43 44 
96 16 44 17 96 16 25 52 96 
16 52 43 96 53 52 25 96 53 
25 26 96 27 28 37 97 27 37 
36 97 64 55 54 97 64 54 63 
97 28 55 64 97 28 64 37 97 
27 54 55 97 27 55 28 97 27 
36 63 97 27 63 54 97 64 63 
36 97 64 36 37 97 28 29 38 
98 28 38 37 98 65 56 55 98 
65 55 64 98 29 56 65 98 29 
65 38 98 28 55 56 98 28 56 
29 98 28 37 64 98 28 64 55 
98 65 64 37 98 65 37 38 98 
29 30 39 99 29 39 38 99 66 
57 56 99 66 56 65 99 30 57 
66 99 30 66 39 99 29 56 57 
99 29 57 30 99 29 38 65 99 
29 65 56 99 66 65 38 99 66 
38 39 99 30 31 40 100 30 40 
39 100 67 58 57 100 67 57 66 
100 31 58 67 100 31 67 40 100 
30 57 58 100 30 58 31 100 30 
39 66 100 30 66 57 100 67 66 
39 100 67 39 40 100 31 32 41 
101 31 41 40 101 68 59 58 101 
68 58 67 101 32 59 68 101 32 
68 41 101 31 58 59 101 31 59 
32 101 31 40 67 101 31 67 58 
101 68 67 40 101 68 40 41 101 
32 33 42 102 32 42 41 102 69 
60 59 102 69 59 68 102 33 60 
69 102 33 69 42 102 32 59 60 
102 32 60 33 102 32 41 68 102 
32 68 59 102 69 68 41 102 69 
41 42 102 33 34 43 103 33 43 
42 103 70 61 60 103 70 60 69 
103 34 61 70 103 34 70 43 103 
33 60 61 103 33 61 34 103 33 
42 69 103 33 69 60 103 70 69 
42 103 70 42 43 103 34 35 44 
104 34 44 43 104 71 62 61 104 
71 61 70 104 35 62 71 104 35 
71 44 104 34 61 62 104 34 62 
35 104 34 43 70 104 34 70 61 
104 71 70 43 104 71 43 44 104 
36 37 46 105 36 46 45 105 73 
64 63 105 73 63 72 105 37 64 
73 105 37 73 46 105 36 63 64 
105 36 64 37 105 36 45 72 105 
36 72 63 105 73 72 45 105 73 
45 46 105 37 38 47 106 37 47 
46 106 74 65 64 106 74 64 73 
106 38 65 74 106 38 74 47 106 
37 64 65 106 37 65 38 106 37 
46 73 106 37 73 64 106 74 73 
46 106 74 46 47 106 38 39 48 
107 38 48 47 107 75 66 65 107 
75 65 74 107 39 66 75 107 39 
75 48 107 38 65 66 107 38 66 
39 107 38 47 74 107 38 74 65 
107 75 74 47 107 75 47 48 107 
39 40 49 108 39 49 48 108 76 
67 66 108 76 66 75 108 40 67 
76 108 40 76 49 108 39 66 67 
108 39 67 40 108 39 48 75 108 
39 75 66 108 76 75 48 108 76 
48 49 108 40 41 50 109 40 50 
49 109 77 68 67 109 77 67 76 
109 41 68 77 109 41 77 50 109 
40 67 68 109 40 68 41 109 40 
49 76 109 40 76 67 109 77 76 
49 109 77 49 50 109 41 42 51 
110 41 51 50 110 78 69 68 110 
78 68 77 110 42 69 78 110 42 
78 51 110 41 68 69 110 41 69 
42 110 41 50 77 110 41 77 68 
110 78 77 50 110 78 50 51 110 
42 43 52 111 42 52 51 111 79 
70 69 111 79 69 78 111 43 70 
79 111 43 79 52 111 42 69 70 
111 42 70 43 111 42 51 78 111 
42 78 69 111 79 78 51 111 79 
51 52 111 43 44 53 112 43 53 
52 112 80 71 70 112 80 70 79 
112 44 71 80 112 44 80 53 112 
43 70 71 112 43 71 44 112 43 
52 79 112 43 79 70 112 80 79 
52 112 80 52 53 112 
CELL_TYPES 384
10
10
10
10
10
10
10
10
10
10
10
10
10
10
10
10
10
10
10
10
10
10
10
10
10
10
10
10
10
10
10
10
10
10
10
10
10
10
10
10
10
10
10
10
10
10
10
10
10
10
10
10
10
10
10
10
10
10
10
10
10
10
10
10
10
10
10
10
10
10
10
10
10
10
10
10
10
10
10
10
10
10
10
10
10
10
10
10
10
10
10
10
10
10
10
10
10
10
10
10
10
10
10
10
10
10
10
10
10
10
10
10
10
10
10
10
10
10
10
10
10
10
10
10
10
10
10
10
10
10
10
10
10
10
10
10
10
10
10
10
10
10
10
10
10
10
10
10
10
10
10
10
10
10
10
10
10
10
10
10
10
10
10
10
10
10
10
10
10
10
10
10
10
10
10
10
10
10
10
10
10
10
10
10
10
10
10
10
10
10
10
10
10
10
10
10
10
10
10
10
10
10
10
10
10
10
10
10
10
10
10
10
10
10
10
10
10
10
10
10
10
10
10
10
10
10
10
10
10
10
10
10
10
10
10
10
10
10
10
10
10
10
10
10
10
10
10
10
10
10
10
10
10
10
10
10
10
10
10
10
10
10
10
10
10
10
10
10
10
10
10
10
10
10
10
10
10
10
10
10
10
10
10
10
10
10
10
10
10
10
10
10
10
10
10
10
10
10
10
10
10
10
10
10
10
10
10
10
10
10
10
10
10
10
10
10
10
10
10
10
10
10
10
10
10
10
10
10
10
10
10
10
10
10
10
10
10
10
10
10
10
10
10
10
10
10
10
10
10
10
10
10
10
10
10
10
10
10
10
10
10
10
10
10
10
10
10
10
10
10
10
10
10
10
10
10
10
10
10
10
10
10
10
10

POINT_DATA 113
FIELD FieldData 2
DistanceToCenter 1 113 float
4.24264 3.31662 2.44949 1.73205 1.41421 1.73205 2.44949 3.31662 4.24264 
4.12311 3.16228 2.23607 1.41421 1 1.41421 2.23607 3.16228 4.12311 
4.24264 3.31662 2.44949 1.73205 1.41421 1.73205 2.44949 3.31662 4.24264 
4.12311 3.16228 2.23607 1.41421 1 1.41421 2.23607 3.16228 4.12311 
4 3 2 1 0 1 2 3 4 
4.12311 3.16228 2.23607 1.41421 1 1.41421 2.23607 3.16228 4.12311 
4.24264 3.31662 2.44949 1.73205 1.41421 1.73205 2.44949 3.31662 4.24264 
4.12311 3.16228 2.23607 1.41421 1 1.41421 2.23607 3.16228 4.12311 
4.24264 3.31662 2.44949 1.73205 1.41421 1.73205 2.44949 3.31662 4.24264 
3.57071 2.59808 1.65831 0.866025 0.866025 1.65831 2.59808 3.57071 3.57071 
2.59808 1.65831 0.866025 0.866025 1.65831 2.59808 3.57071 3.57071 2.59808 
1.65831 0.866025 0.866025 1.65831 2.59808 3.57071 3.57071 2.59808 1.65831 
0.866025 0.866025 1.65831 2.59808 3.57071 
Polynomial 1 113 float
1 2 3 4 5 6 7 8 9 
2 3 4 5 6 7 8 9 10 
3 4 5 6 7 8 9 10 11 
2 3 4 5 6 7 8 9 10 
3 4 5 6 7 8 9 10 11 
4 5 6 7 8 9 10 11 12 
3 4 5 6 7 8 9 10 11 
4 5 6 7 8 9 10 11 12 
5 6 7 8 9 10 11 12 13 
1 2 3 4 5 6 7 8 2 
3 4 5 6 7 8 9 2 3 
4 5 6 7 8 9 3 4 5 
6 7 8 9 10 
