# vtk DataFile Version 5.1
vtk output
ASCII

DATASET UNSTRUCTURED_GRID
POINTS 15625 float
0 0 0
0.0416667 0 0
0.0833333 0 0
0.125 0 0
0.166667 0 0
0.208333 0 0
0.25 0 0
0.291667 0 0
0.333333 0 0
0.375 0 0
0.416667 0 0
0.458333 0 0
0.5 0 0
0.541667 0 0
0.583333 0 0
0.625 0 0
0.666667 0 0
0.708333 0 0
0.75 0 0
0.791667 0 0
0.833333 0 0
0.875 0 0
0.916667 0 0
0.958333 0 0
1 0 0
0 0.0416667 0
0.0416667 0.0416667 0
0.0833333 0.0416667 0
0.125 0.0416667 0
0.166667 0.0416667 0
0.208333 0.0416667 0
0.25 0.0416667 0
0.291667 0.0416667 0
0.333333 0.0416667 0
0.375 0.0416667 0
0.416667 0.0416667 0
0.458333 0.0416667 0
0.5 0.0416667 0
0.541667 0.0416667 0
0.583333 0.0416667 0
0.625 0.0416667 0
0.666667 0.0416667 0
0.708333 0.0416667 0
0.75 0.0416667 0
0.791667 0.0416667 0
0.833333 0.0416667 0
0.875 0.0416667 0
0.916667 0.0416667 0
0.958333 0.0416667 0
1 0.0416667 0
0 0.0833333 0
0.0416667 0.0833333 0
0.0833333 0.0833333 0
0.125 0.0833333 0
0.166667 0.0833333 0
0.208333 0.0833333 0
0.25 0.0833333 0
0.291667 0.0833333 0
0.333333 0.0833333 0
0.375 0.0833333 0
0.416667 0.0833333 0
0.458333 0.0833333 0
0.5 0.0833333 0
0.541667 0.0833333 0
0.583333 0.0833333 0
0.625 0.0833333 0
0.666667 0.0833333 0
0.708333 0.0833333 0
0.75 0.0833333 0
0.791667 0.0833333 0
0.833333 0.0833333 0
0.875 0.0833333 0
0.916667 0.0833333 0
0.958333 0.0833333 0
1 0.0833333 0
0 0.125 0
0.0416667 0.125 0
0.0833333 0.125 0
0.125 0.125 0
0.166667 0.125 0
0.208333 0.125 0
0.25 0.125 0
0.291667 0.125 0
0.333333 0.125 0
0.375 0.125 0
0.416667 0.125 0
0.458333 0.125 0
0.5 0.125 0
0.541667 0.125 0
0.583333 0.125 0
0.625 0.125 0
0.666667 0.125 0
0.708333 0.125 0
0.75 0.125 0
0.791667 0.125 0
0.833333 0.125 0
0.875 0.125 0
0.916667 0.125 0
0.958333 0.125 0
1 0.125 0
0 0.166667 0
0.0416667 0.166667 0
0.0833333 0.166667 0
0.125 0.166667 0
0.166667 0.166667 0
0.208333 0.166667 0
0.25 0.166667 0
0.291667 0.166667 0
0.333333 0.166667 0
0.375 0.166667 0
0.416667 0.166667 0
0.458333 0.166667 0
0.5 0.166667 0
0.541667 0.166667 0
0.583333 0.166667 0
0.625 0.166667 0
0.666667 0.166667 0
0.708333 0.166667 0
0.75 0.166667 0
0.791667 0.166667 0
0.833333 0.166667 0
0.875 0.166667 0
0.916667 0.166667 0
0.958333 0.166667 0
1 0.166667 0
0 0.208333 0
0.0416667 0.208333 0
0.0833333 0.208333 0
0.125 0.208333 0
0.166667 0.208333 0
0.208333 0.208333 0
0.25 0.208333 0
0.291667 0.208333 0
0.333333 0.208333 0
0.375 0.208333 0
0.416667 0.208333 0
0.458333 0.208333 0
0.5 0.208333 0
0.541667 0.208333 0
0.583333 0.208333 0
0.625 0.208333 0
0.666667 0.208333 0
0.708333 0.208333 0
0.75 0.208333 0
0.791667 0.208333 0
0.833333 0.208333 0
0.875 0.208333 0
0.916667 0.208333 0
0.958333 0.208333 0
1 0.208333 0
0 0.25 0
0.0416667 0.25 0
0.0833333 0.25 0
0.125 0.25 0
0.166667 0.25 0
0.208333 0.25 0
0.25 0.25 0
0.291667 0.25 0
0.333333 0.25 0
0.375 0.25 0
0.416667 0.25 0
0.458333 0.25 0
0.5 0.25 0
0.541667 0.25 0
0.583333 0.25 0
0.625 0.25 0
0.666667 0.25 0
0.708333 0.25 0
0.75 0.25 0
0.791667 0.25 0
0.833333 0.25 0
0.875 0.25 0
0.916667 0.25 0
0.958333 0.25 0
1 0.25 0
0 0.291667 0
0.0416667 0.291667 0
0.0833333 0.291667 0
0.125 0.291667 0
0.166667 0.291667 0
0.208333 0.291667 0
0.25 0.291667 0
0.291667 0.291667 0
0.333333 0.291667 0
0.375 0.291667 0
0.416667 0.291667 0
0.458333 0.291667 0
0.5 0.291667 0
0.541667 0.291667 0
0.583333 0.291667 0
0.625 0.291667 0
0.666667 0.291667 0
0.708333 0.291667 0
0.75 0.291667 0
0.791667 0.291667 0
0.833333 0.291667 0
0.875 0.291667 0
0.916667 0.291667 0
0.958333 0.291667 0
1 0.291667 0
0 0.333333 0
0.0416667 0.333333 0
0.0833333 0.333333 0
0.125 0.333333 0
0.166667 0.333333 0
0.208333 0.333333 0
0.25 0.333333 0
0.291667 0.333333 0
0.333333 0.333333 0
0.375 0.333333 0
0.416667 0.333333 0
0.458333 0.333333 0
0.5 0.333333 0
0.541667 0.333333 0
0.583333 0.333333 0
0.625 0.333333 0
0.666667 0.333333 0
0.708333 0.333333 0
0.75 0.333333 0
0.791667 0.333333 0
0.833333 0.333333 0
0.875 0.333333 0
0.916667 0.333333 0
0.958333 0.333333 0
1 0.333333 0
0 0.375 0
0.0416667 0.375 0
0.0833333 0.375 0
0.125 0.375 0
0.166667 0.375 0
0.208333 0.375 0
0.25 0.375 0
0.291667 0.375 0
0.333333 0.375 0
0.375 0.375 0
0.416667 0.375 0
0.458333 0.375 0
0.5 0.375 0
0.541667 0.375 0
0.583333 0.375 0
0.625 0.375 0
0.666667 0.375 0
0.708333 0.375 0
0.75 0.375 0
0.791667 0.375 0
0.833333 0.375 0
0.875 0.375 0
0.916667 0.375 0
0.958333 0.375 0
1 0.375 0
0 0.416667 0
0.0416667 0.416667 0
0.0833333 0.416667 0
0.125 0.416667 0
0.166667 0.416667 0
0.208333 0.416667 0
0.25 0.416667 0
0.291667 0.416667 0
0.333333 0.416667 0
0.375 0.416667 0
0.416667 0.416667 0
0.458333 0.416667 0
0.5 0.416667 0
0.541667 0.416667 0
0.583333 0.416667 0
0.625 0.416667 0
0.666667 0.416667 0
0.708333 0.416667 0
0.75 0.416667 0
0.791667 0.416667 0
0.833333 0.416667 0
0.875 0.416667 0
0.916667 0.416667 0
0.958333 0.416667 0
1 0.416667 0
0 0.458333 0
0.0416667 0.458333 0
0.0833333 0.458333 0
0.125 0.458333 0
0.166667 0.458333 0
0.208333 0.458333 0
0.25 0.458333 0
0.291667 0.458333 0
0.333333 0.458333 0
0.375 0.458333 0
0.416667 0.458333 0
0.458333 0.458333 0
0.5 0.458333 0
0.541667 0.458333 0
0.583333 0.458333 0
0.625 0.458333 0
0.666667 0.458333 0
0.708333 0.458333 0
0.75 0.458333 0
0.791667 0.458333 0
0.833333 0.458333 0
0.875 0.458333 0
0.916667 0.458333 0
0.958333 0.458333 0
1 0.458333 0
0 0.5 0
0.0416667 0.5 0
0.0833333 0.5 0
0.125 0.5 0
0.166667 0.5 0
0.208333 0.5 0
0.25 0.5 0
0.291667 0.5 0
0.333333 0.5 0
0.375 0.5 0
0.416667 0.5 0
0.458333 0.5 0
0.5 0.5 0
0.541667 0.5 0
0.583333 0.5 0
0.625 0.5 0
0.666667 0.5 0
0.708333 0.5 0
0.75 0.5 0
0.791667 0.5 0
0.833333 0.5 0
0.875 0.5 0
0.916667 0.5 0
0.958333 0.5 0
1 0.5 0
0 0.541667 0
0.0416667 0.541667 0
0.0833333 0.541667 0
0.125 0.541667 0
0.166667 0.541667 0
0.208333 0.541667 0
0.25 0.541667 0
0.291667 0.541667 0
0.333333 0.541667 0
0.375 0.541667 0
0.416667 0.541667 0
0.458333 0.541667 0
0.5 0.541667 0
0.541667 0.541667 0
0.583333 0.541667 0
0.625 0.541667 0
0.666667 0.541667 0
0.708333 0.541667 0
0.75 0.541667 0
0.791667 0.541667 0
0.833333 0.541667 0
0.875 0.541667 0
0.916667 0.541667 0
0.958333 0.541667 0
1 0.541667 0
0 0.583333 0
0.0416667 0.583333 0
0.0833333 0.583333 0
0.125 0.583333 0
0.166667 0.583333 0
0.208333 0.583333 0
0.25 0.583333 0
0.291667 0.583333 0
0.333333 0.583333 0
0.375 0.583333 0
0.416667 0.583333 0
0.458333 0.583333 0
0.5 0.583333 0
0.541667 0.583333 0
0.583333 0.583333 0
0.625 0.583333 0
0.666667 0.583333 0
0.708333 0.583333 0
0.75 0.583333 0
0.791667 0.583333 0
0.833333 0.583333 0
0.875 0.583333 0
0.916667 0.583333 0
0.958333 0.583333 0
1 0.583333 0
0 0.625 0
0.0416667 0.625 0
0.0833333 0.625 0
0.125 0.625 0
0.166667 0.625 0
0.208333 0.625 0
0.25 0.625 0
0.291667 0.625 0
0.333333 0.625 0
0.375 0.625 0
0.416667 0.625 0
0.458333 0.625 0
0.5 0.625 0
0.541667 0.625 0
0.583333 0.625 0
0.625 0.625 0
0.666667 0.625 0
0.708333 0.625 0
0.75 0.625 0
0.791667 0.625 0
0.833333 0.625 0
0.875 0.625 0
0.916667 0.625 0
0.958333 0.625 0
1 0.625 0
0 0.666667 0
0.0416667 0.666667 0
0.0833333 0.666667 0
0.125 0.666667 0
0.166667 0.666667 0
0.208333 0.666667 0
0.25 0.666667 0
0.291667 0.666667 0
0.333333 0.666667 0
0.375 0.666667 0
0.416667 0.666667 0
0.458333 0.666667 0
0.5 0.666667 0
0.541667 0.666667 0
0.583333 0.666667 0
0.625 0.666667 0
0.666667 0.666667 0
0.708333 0.666667 0
0.75 0.666667 0
0.791667 0.666667 0
0.833333 0.666667 0
0.875 0.666667 0
0.916667 0.666667 0
0.958333 0.666667 0
1 0.666667 0
0 0.708333 0
0.0416667 0.708333 0
0.0833333 0.708333 0
0.125 0.708333 0
0.166667 0.708333 0
0.208333 0.708333 0
0.25 0.708333 0
0.291667 0.708333 0
0.333333 0.708333 0
0.375 0.708333 0
0.416667 0.708333 0
0.458333 0.708333 0
0.5 0.708333 0
0.541667 0.708333 0
0.583333 0.708333 0
0.625 0.708333 0
0.666667 0.708333 0
0.708333 0.708333 0
0.75 0.708333 0
0.791667 0.708333 0
0.833333 0.708333 0
0.875 0.708333 0
0.916667 0.708333 0
0.958333 0.708333 0
1 0.708333 0
0 0.75 0
0.0416667 0.75 0
0.0833333 0.75 0
0.125 0.75 0
0.166667 0.75 0
0.208333 0.75 0
0.25 0.75 0
0.291667 0.75 0
0.333333 0.75 0
0.375 0.75 0
0.416667 0.75 0
0.458333 0.75 0
0.5 0.75 0
0.541667 0.75 0
0.583333 0.75 0
0.625 0.75 0
0.666667 0.75 0
0.708333 0.75 0
0.75 0.75 0
0.791667 0.75 0
0.833333 0.75 0
0.875 0.75 0
0.916667 0.75 0
0.958333 0.75 0
1 0.75 0
0 0.791667 0
0.0416667 0.791667 0
0.0833333 0.791667 0
0.125 0.791667 0
0.166667 0.791667 0
0.208333 0.791667 0
0.25 0.791667 0
0.291667 0.791667 0
0.333333 0.791667 0
0.375 0.791667 0
0.416667 0.791667 0
0.458333 0.791667 0
0.5 0.791667 0
0.541667 0.791667 0
0.583333 0.791667 0
0.625 0.791667 0
0.666667 0.791667 0
0.708333 0.791667 0
0.75 0.791667 0
0.791667 0.791667 0
0.833333 0.791667 0
0.875 0.791667 0
0.916667 0.791667 0
0.958333 0.791667 0
1 0.791667 0
0 0.833333 0
0.0416667 0.833333 0
0.0833333 0.833333 0
0.125 0.833333 0
0.166667 0.833333 0
0.208333 0.833333 0
0.25 0.833333 0
0.291667 0.833333 0
0.333333 0.833333 0
0.375 0.833333 0
0.416667 0.833333 0
0.458333 0.833333 0
0.5 0.833333 0
0.541667 0.833333 0
0.583333 0.833333 0
0.625 0.833333 0
0.666667 0.833333 0
0.708333 0.833333 0
0.75 0.833333 0
0.791667 0.833333 0
0.833333 0.833333 0
0.875 0.833333 0
0.916667 0.833333 0
0.958333 0.833333 0
1 0.833333 0
0 0.875 0
0.0416667 0.875 0
0.0833333 0.875 0
0.125 0.875 0
0.166667 0.875 0
0.208333 0.875 0
0.25 0.875 0
0.291667 0.875 0
0.333333 0.875 0
0.375 0.875 0
0.416667 0.875 0
0.458333 0.875 0
0.5 0.875 0
0.541667 0.875 0
0.583333 0.875 0
0.625 0.875 0
0.666667 0.875 0
0.708333 0.875 0
0.75 0.875 0
0.791667 0.875 0
0.833333 0.875 0
0.875 0.875 0
0.916667 0.875 0
0.958333 0.875 0
1 0.875 0
0 0.916667 0
0.0416667 0.916667 0
0.0833333 0.916667 0
0.125 0.916667 0
0.166667 0.916667 0
0.208333 0.916667 0
0.25 0.916667 0
0.291667 0.916667 0
0.333333 0.916667 0
0.375 0.916667 0
0.416667 0.916667 0
0.458333 0.916667 0
0.5 0.916667 0
0.541667 0.916667 0
0.583333 0.916667 0
0.625 0.916667 0
0.666667 0.916667 0
0.708333 0.916667 0
0.75 0.916667 0
0.791667 0.916667 0
0.833333 0.916667 0
0.875 0.916667 0
0.916667 0.916667 0
0.958333 0.916667 0
1 0.916667 0
[...]
POINT_DATA 15625
SCALARS weights float 1
LOOKUP_TABLE default
0.00904225 0.0180845 0.0180845 0.0180845 0.0180845 0.0180845 0.0180845 0.0180845 0.0180845 0.0180845 0.0180845 0.0180845 0.0180845 0.0180845 0.0180845 0.0180845 0.0180845 0.0180845 0.0180845 0.0180845 0.0180845 0.0180845 0.0180845 0.0180845 0.00904224 0.0180845 0.036169 0.036169 0.036169 0.036169 0.036169 0.036169 0.036169 0.036169 0.036169 0.036169 0.036169 0.036169 0.036169 0.036169 0.036169 0.036169 0.036169 0.036169 0.036169 0.036169 0.036169 0.036169 0.036169 0.0180845 0.0180845 0.036169 0.036169 0.036169 0.036169 0.036169 0.036169 0.036169 0.036169 0.036169 0.036169 0.036169 0.036169 0.036169 0.036169 0.036169 0.036169 0.036169 0.036169 0.036169 0.036169 0.036169 0.036169 0.036169 0.0180845 0.0180845 0.036169 0.036169 0.036169 0.036169 0.036169 0.036169 0.036169 0.036169 0.036169 0.036169 0.036169 0.036169 0.036169 0.036169 0.036169 0.036169 0.036169 0.036169 0.036169 0.036169 0.036169 0.036169 0.036169 0.0180845 0.0180845 0.036169 0.036169 0.036169 0.036169 0.036169 0.036169 0.036169 0.036169 0.036169 0.036169 0.036169 0.036169 0.036169 0.036169 0.036169 0.036169 0.036169 0.036169 0.036169 0.036169 0.036169 0.036169 0.036169 0.0180845 0.0180845 0.036169 0.036169 0.036169 0.036169 0.036169 0.036169 0.036169 0.036169 0.036169 0.036169 0.036169 0.036169 0.036169 0.036169 0.036169 0.036169 0.036169 0.036169 0.036169 0.036169 0.036169 0.036169 0.036169 0.0180845 0.0180845 0.036169 0.036169 0.036169 0.036169 0.036169 0.036169 0.036169 0.036169 0.036169 0.036169 0.036169 0.036169 0.036169 0.036169 0.036169 0.036169 0.036169 0.036169 0.036169 0.036169 0.036169 0.036169 0.036169 0.0180845 0.0180845 0.036169 0.036169 0.036169 0.036169 0.036169 0.036169 0.036169 0.036169 0.036169 0.036169 0.036169 0.036169 0.036169 0.036169 0.036169 0.036169 0.036169 0.036169 0.036169 0.036169 0.036169 0.036169 0.036169 0.0180845 0.0180845 0.036169 0.036169 0.036169 0.036169 0.036169 0.036169 0.036169 0.036169 0.036169 0.036169 0.036169 0.036169 0.036169 0.036169 0.036169 0.036169 0.036169 0.036169 0.036169 0.036169 0.036169 0.036169 0.036169 0.0180845 0.0180845 0.036169 0.036169 0.036169 0.036169 0.036169 0.036169 0.036169 0.036169 0.036169 0.036169 0.036169 0.036169 0.036169 0.036169 0.036169 0.036169 0.036169 0.036169 0.036169 0.036169 0.036169 0.036169 0.036169 0.0180845 0.0180845 0.036169 0.036169 0.036169 0.036169 0.036169 0.036169 0.036169 0.036169 0.036169 0.036169 0.036169 0.036169 0.036169 0.036169 0.036169 0.036169 0.036169 0.036169 0.036169 0.036169 0.036169 0.036169 0.036169 0.0180845 0.0180845 0.036169 0.036169 0.036169 0.036169 0.036169 0.036169 0.036169 0.036169 0.036169 0.036169 0.036169 0.036169 0.036169 0.036169 0.036169 0.036169 0.036169 0.036169 0.036169 0.036169 0.036169 0.036169 0.036169 0.0180845 0.0180845 0.036169 0.036169 0.036169 0.036169 0.036169 0.036169 0.036169 0.036169 0.036169 0.036169 0.036169 0.036169 0.036169 0.036169 0.036169 0.036169 0.036169 0.036169 0.036169 0.036169 0.036169 0.036169 0.036169 0.0180845 0.0180845 0.036169 0.036169 0.036169 0.036169 0.036169 0.036169 0.036169 0.036169 0.036169 0.036169 0.036169 0.036169 0.036169 0.036169 0.036169 0.036169 0.036169 0.036169 0.036169 0.036169 0.036169 0.036169 0.036169 0.0180845 0.0180845 0.036169 0.036169 0.036169 0.036169 0.036169 0.036169 0.036169 0.036169 0.036169 0.036169 0.036169 0.036169 0.036169 0.036169 0.036169 0.036169 0.036169 0.036169 0.036169 0.036169 0.036169 0.036169 0.036169 0.0180845 0.0180845 0.036169 0.036169 0.036169 0.036169 0.036169 0.036169 0.036169 0.036169 0.036169 0.036169 0.036169 0.036169 0.036169 0.036169 0.036169 0.036169 0.036169 0.036169 0.036169 0.036169 0.036169 0.036169 0.036169 0.0180845 0.0180845 0.036169 0.036169 0.036169 0.036169 0.036169 0.036169 0.036169 0.036169 0.036169 0.036169 0.036169 0.036169 0.036169 0.036169 0.036169 0.036169 0.036169 0.036169 0.036169 0.036169 0.036169 0.036169 0.036169 0.0180845 0.0180845 0.036169 0.036169 0.036169 0.036169 0.036169 0.036169 0.036169 0.036169 0.036169 0.036169 0.036169 0.036169 0.036169 0.036169 0.036169 0.036169 0.036169 0.036169 0.036169 0.036169 0.036169 0.036169 0.036169 0.0180845 0.0180845 0.036169 0.036169 0.036169 0.036169 0.036169 0.036169 0.036169 0.0361689 0.036169 0.036169 0.0361689 0.036169 0.036169 0.0361689 0.036169 0.036169 0.0361689 0.0361689 0.036169 0.036169 0.0361689 0.036169 0.036169 0.0180845 0.0180845 0.036169 0.036169 0.036169 0.036169 0.036169 0.036169 0.036169 0.036169 0.036169 0.036169 0.036169 0.036169 0.036169 0.036169 0.036169 0.036169 0.036169 0.036169 0.036169 0.036169 0.036169 0.036169 0.036169 0.0180845 0.0180845 0.036169 0.036169 0.036169 0.036169 0.036169 0.036169 0.036169 0.036169 0.036169 0.036169 0.036169 0.036169 0.036169 0.036169 0.036169 0.036169 0.036169 0.036169 0.036169 0.036169 0.036169 0.036169 0.036169 0.0180845 0.0180845 0.036169 0.036169 0.036169 0.036169 0.036169 0.036169 0.036169 0.036169 0.036169 0.036169 0.036169 0.036169 0.036169 0.036169 0.036169 0.036169 0.0361689 0.0361689 0.036169 0.036169 0.0361689 0.036169 0.036169 0.0180845 0.0180845 0.036169 0.036169 0.036169 0.036169 0.036169 0.036169 0.036169 0.036169 0.036169 0.036169 0.036169 0.036169 0.036169 0.036169 0.036169 0.036169 0.036169 0.036169 0.036169 0.036169 0.036169 0.036169 0.036169 0.0180845 0.0180845 0.036169 0.036169 0.036169 0.036169 0.036169 0.036169 0.036169 0.036169 0.036169 0.036169 0.036169 0.036169 0.036169 0.036169 0.036169 0.036169 0.036169 0.036169 0.036169 0.036169 0.036169 0.036169 0.036169 0.0180845 0.00904224 0.0180845 0.0180845 0.0180845 0.0180845 0.0180845 0.0180845 0.0180845 0.0180845 0.0180845 0.0180845 0.0180845 0.0180845 0.0180845 0.0180845 0.0180845 0.0180845 0.0180845 0.0180845 0.0180845 0.0180845 0.0180845 0.0180845 0.0180845 0.00904223 0.0180845 0.036169 0.036169 0.036169 0.036169 0.036169 0.036169 0.036169 0.036169 0.036169 0.036169 0.036169 0.036169 0.036169 0.036169 0.036169 0.036169 0.036169 0.036169 0.036169 0.036169 0.036169 0.036169 0.036169 0.0180845 0.036169 0.072338 0.072338 0.072338 0.072338 0.072338 0.072338 0.072338 0.072338 0.072338 0.072338 0.072338 0.072338 0.072338 0.072338 0.072338 0.072338 0.0723379 0.0723379 0.072338 0.072338 0.0723379 0.072338 0.072338 0.0361689 0.036169 0.072338 0.072338 0.072338 0.072338 0.072338 0.072338 0.072338 0.072338 0.072338 0.072338 0.0723379 0.072338 0.072338 0.0723379 0.072338 0.072338 0.0723379 0.0723379 0.072338 0.072338 0.0723379 0.072338 0.072338 0.0361689 0.036169 0.072338 0.072338 0.072338 0.072338 0.072338 0.072338 0.072338 0.072338 0.072338 0.072338 0.0723379 0.072338 0.072338 0.0723379 0.072338 0.072338 0.0723379 0.0723379 0.072338 0.072338 0.0723379 0.072338 0.072338 0.0361689 0.036169 0.072338 0.072338 0.072338 0.072338 0.072338 0.072338 0.072338 0.072338 0.072338 0.072338 0.072338 0.072338 0.072338 0.072338 0.072338 0.072338 0.0723379 0.0723379 0.072338 0.072338 0.0723379 0.072338 0.072338 0.0361689 0.036169 0.072338 0.072338 0.072338 0.072338 0.072338 0.072338 0.072338 0.0723379 0.072338 0.072338 0.0723379 0.072338 0.072338 0.0723379 0.072338 0.072338 0.0723379 0.0723379 0.072338 0.072338 0.0723379 0.072338 0.072338 0.0361689 0.036169 0.072338 0.072338 0.072338 0.072338 0.072338 0.072338 0.072338 0.072338 0.072338 0.072338 0.0723379 0.072338 0.072338 0.0723379 0.072338 0.072338 0.0723379 0.0723379 0.072338 0.072338 0.0723379 0.072338 0.072338 0.0361689 0.036169 0.072338 0.072338 0.072338 0.072338 0.072338 0.072338 0.072338 0.072338 0.072338 0.072338 0.072338 0.072338 0.072338 0.072338 0.072338 0.072338 0.0723379 0.0723379 0.072338 0.072338 0.0723379 0.072338 0.072338 0.0361689 0.036169 0.0723379 0.0723379 0.0723379 0.072338 0.0723379 0.072338 0.072338 0.0723379 0.072338 0.072338 0.0723379 0.072338 0.072338 0.0723379 0.072338 0.072338 0.0723379 0.0723379 0.072338 0.072338 0.0723379 0.072338 0.0723379 0.0361689 0.036169 0.072338 0.072338 0.072338 0.072338 0.072338 0.072338 0.072338 0.072338 0.072338 0.072338 0.0723379 0.072338 0.072338 0.0723379 0.072338 0.072338 0.0723379 0.0723379 0.072338 0.072338 0.0723379 0.072338 0.072338 0.0361689 0.036169 0.072338 0.072338 0.072338 0.072338 0.072338 0.072338 0.072338 0.072338 0.072338 0.072338 0.0723379 0.072338 0.072338 0.072338 0.072338 0.072338 0.0723379 0.0723379 0.072338 0.072338 0.0723379 0.072338 0.072338 0.0361689 0.036169 0.072338 0.072338 0.072338 0.072338 0.0723379 0.072338 0.072338 0.0723379 0.072338 0.072338 0.0723379 0.072338 0.072338 0.0723379 0.072338 0.072338 0.0723379 0.0723379 0.072338 0.072338 0.0723379 0.072338 0.0723379 0.0361689 0.036169 0.072338 0.072338 0.072338 0.072338 0.072338 0.072338 0.072338 0.072338 0.072338 0.072338 0.072338 0.072338 0.072338 0.072338 0.072338 0.072338 0.0723379 0.0723379 0.072338 0.072338 0.0723379 0.072338 0.072338 0.0361689 0.036169 0.072338 0.072338 0.072338 0.072338 0.072338 0.072338 0.072338 0.072338 0.072338 0.072338 0.072338 0.072338 0.072338 0.072338 0.072338 0.072338 0.0723379 0.0723379 0.072338 0.072338 0.0723379 0.072338 0.072338 0.0361689 0.036169 0.0723379 0.0723379 0.0723379 0.072338 0.0723379 0.0723379 0.072338 0.0723379 0.072338 0.072338 0.0723379 0.072338 0.072338 0.0723379 0.072338 0.072338 0.0723379 0.0723379 0.072338 0.072338 0.0723379 0.072338 0.0723379 0.0361689 0.036169 0.072338 0.072338 0.072338 0.072338 0.072338 0.072338 0.072338 0.0723379 0.072338 0.072338 0.0723379 0.072338 0.072338 0.0723379 0.072338 0.072338 0.0723379 0.0723379 0.072338 0.072338 0.0723379 0.072338 0.072338 0.0361689 0.036169 0.072338 0.072338 0.072338 0.072338 0.072338 0.072338 0.072338 0.072338 0.072338 0.072338 0.072338 0.072338 0.072338 0.072338 0.072338 0.0723381 0.072338 0.072338 0.0723381 0.072338 0.072338 0.072338 0.072338 0.036169 0.036169 0.0723379 0.0723379 0.0723379 0.072338 0.0723379 0.0723379 0.072338 0.0723379 0.072338 0.072338 0.0723379 0.0723379 0.072338 0.0723379 0.0723379 0.072338 0.0723379 0.0723379 0.072338 0.072338 0.0723379 0.072338 0.0723379 0.0361689 0.036169 0.0723379 0.0723379 0.0723379 0.0723379 0.0723379 0.0723379 0.0723379 0.0723379 0.0723379 0.0723379 0.0723379 0.0723379 0.0723379 0.0723379 0.0723379 0.072338 0.0723379 0.0723379 0.072338 0.0723379 0.0723379 0.0723379 0.0723379 0.0361689 0.036169 0.072338 0.072338 0.072338 0.072338 0.072338 0.072338 0.072338 0.072338 0.072338 0.072338 0.072338 0.072338 0.072338 0.072338 0.072338 0.072338 0.072338 0.072338 0.072338 0.072338 0.072338 0.072338 0.072338 0.036169 0.036169 0.072338 0.072338 0.072338 0.072338 0.072338 0.072338 0.072338 0.072338 0.072338 0.072338 0.072338 0.072338 0.072338 0.072338 0.072338 0.072338 0.0723379 0.0723379 0.072338 0.072338 0.0723379 0.072338 0.072338 0.0361689 0.036169 0.0723379 0.0723379 0.0723379 0.0723379 0.0723379 0.0723379 0.0723379 0.0723379 0.0723379 0.0723379 0.0723379 0.0723379 0.072338 0.0723379 0.0723379 0.072338 0.0723379 0.0723379 0.072338 0.0723379 0.0723379 0.072338 0.0723379 0.0361689 0.036169 0.072338 0.072338 0.072338 0.072338 0.072338 0.072338 0.072338 0.072338 0.072338 0.072338 0.072338 0.072338 0.072338 0.072338 0.072338 0.072338 0.072338 0.0723379 0.072338 0.072338 0.0723379 0.072338 0.072338 0.036169 0.036169 0.0723379 0.0723379 0.072338 0.072338 0.072338 0.072338 0.072338 0.0723379 0.072338 0.072338 0.0723379 0.072338 0.072338 0.0723379 0.072338 0.072338 0.0723379 0.0723379 0.072338 0.072338 0.0723379 0.072338 0.072338 0.0361689 0.0180845 0.0361689 0.0361689 0.0361689 0.0361689 0.0361689 0.0361689 0.0361689 0.0361689 0.0361689 0.0361689 0.0361689 0.0361689 0.036169 0.0361689 0.0361689 0.036169 0.0361689 0.0361689 0.036169 0.0361689 0.0361689 0.036169 0.0361689 0.0180845 0.0180845 0.036169 0.036169 0.036169 0.036169 0.036169 0.036169 0.036169 0.036169 0.036169 0.036169 0.036169 0.036169 0.036169 0.036169 0.036169 0.036169 0.036169 0.036169 0.036169 0.036169 0.036169 0.036169 0.036169 0.0180845 0.036169 0.072338 0.072338 0.072338 0.072338 0.072338 0.072338 0.072338 0.072338 0.072338 0.072338 0.0723379 0.072338 0.072338 0.0723379 0.072338 0.072338 0.0723379 0.0723379 0.072338 0.072338 0.0723379 0.072338 0.072338 0.0361689 0.036169 0.072338 0.072338 0.072338 0.072338 0.072338 0.072338 0.072338 0.072338 0.072338 0.072338 0.0723379 0.072338 0.072338 0.0723379 0.072338 0.072338 0.0723379 0.0723379 0.072338 0.072338 0.0723379 0.072338 0.072338 0.0361689 0.036169 0.072338 0.072338 0.072338 0.072338 0.072338 0.072338 0.072338 0.072338 0.072338 0.072338 0.0723379 0.072338 0.072338 0.0723379 0.072338 0.072338 0.0723379 0.0723379 0.072338 0.072338 0.0723379 0.072338 0.072338 0.0361689 0.036169 0.072338 0.072338 0.072338 0.072338 0.072338 0.072338 0.072338 0.072338 0.072338 0.072338 0.072338 0.072338 0.072338 0.072338 0.072338 0.072338 0.0723379 0.0723379 0.072338 0.072338 0.0723379 0.072338 0.072338 0.0361689 0.036169 0.072338 0.072338 0.072338 0.072338 0.072338 0.072338 0.072338 0.0723379 0.072338 0.072338 0.0723379 0.072338 0.072338 0.0723379 0.072338 0.072338 0.0723379 0.0723379 0.072338 0.072338 0.0723379 0.072338 0.072338 0.0361689 0.036169 0.072338 0.072338 0.072338 0.072338 0.072338 0.072338 0.072338 0.072338 0.072338 0.072338 0.0723379 0.072338 0.072338 0.0723379 0.072338 0.072338 0.0723379 0.0723379 0.072338 0.072338 0.0723379 0.072338 0.072338 0.0361689 0.036169 0.072338 0.072338 0.072338 0.072338 0.072338 0.072338 0.072338 0.072338 0.072338 0.072338 0.0723379 0.072338 0.072338 0.072338 0.072338 0.072338 0.0723379 0.0723379 0.072338 0.072338 0.0723379 0.072338 0.072338 0.0361689 0.036169 0.0723379 0.0723379 0.0723379 0.0723379 0.0723379 0.0723379 0.072338 0.0723379 0.072338 0.072338 0.0723379 0.0723379 0.072338 0.0723379 0.0723379 0.072338 0.0723379 0.0723379 0.072338 0.072338 0.0723379 0.072338 0.0723379 0.0361689 0.036169 0.072338 0.072338 0.072338 0.072338 0.072338 0.072338 0.072338 0.072338 0.072338 0.072338 0.0723379 0.072338 0.072338 0.0723379 0.072338 0.072338 0.0723379 0.0723379 0.072338 0.072338 0.0723379 0.072338 0.072338 0.0361689 0.036169 0.072338 0.072338 0.072338 0.072338 0.072338 0.072338 0.072338 0.072338 0.072338 0.072338 0.072338 0.072338 0.072338 0.072338 0.072338 0.072338 0.0723379 0.0723379 0.072338 0.072338 0.0723379 0.072338 0.072338 0.0361689 0.036169 0.072338 0.072338 0.072338 0.072338 0.0723379 0.072338 0.072338 0.0723379 0.072338 0.072338 0.0723379 0.072338 0.072338 0.0723379 0.072338 0.072338 0.0723379 0.0723379 0.072338 0.072338 0.0723379 0.072338 0.0723379 0.0361689 0.036169 0.072338 0.072338 0.072338 0.072338 0.072338 0.072338 0.072338 0.072338 0.072338 0.072338 0.072338 0.072338 0.072338 0.072338 0.072338 0.072338 0.0723379 0.0723379 0.072338 0.072338 0.0723379 0.072338 0.072338 0.0361689 0.036169 0.072338 0.072338 0.072338 0.072338 0.072338 0.072338 0.072338 0.072338 0.072338 0.072338 0.072338 0.072338 0.072338 0.072338 0.072338 0.072338 0.0723379 0.0723379 0.072338 0.072338 0.0723379 0.072338 0.072338 0.0361689 0.036169 0.072338 0.072338 0.0723379 0.072338 0.0723379 0.0723379 0.072338 0.0723379 0.0723379 0.0723379 0.0723379 0.0723379 0.072338 0.0723379 0.0723379 0.072338 0.0723379 0.0723379 0.072338 0.072338 0.0723379 0.072338 0.0723379 0.0361689 0.036169 0.072338 0.0723379 0.072338 0.072338 0.0723379 0.072338 0.072338 0.0723379 0.072338 0.072338 0.0723379 0.072338 0.072338 0.0723379 0.072338 0.072338 0.0723379 0.0723379 0.072338 0.072338 0.0723379 0.072338 0.072338 0.0361689 0.036169 0.072338 0.072338 0.072338 0.072338 0.072338 0.072338 0.072338 0.072338 0.072338 0.072338 0.072338 0.072338 0.072338 0.072338 0.072338 0.0723381 0.072338 0.072338 0.0723381 0.072338 0.072338 0.072338 0.072338 0.036169 0.036169 0.0723379 0.0723379 0.0723379 0.0723379 0.0723379 0.0723379 0.072338 0.0723379 0.072338 0.0723379 0.0723379 0.0723379 0.072338 0.0723379 0.0723379 0.072338 0.0723379 0.0723379 0.072338 0.0723379 0.0723379 0.072338 0.0723379 0.0361689 0.036169 0.0723379 0.0723379 0.0723379 0.0723379 0.0723379 0.0723379 0.0723379 0.0723379 0.0723379 0.0723379 0.0723379 0.0723379 0.0723379 0.0723379 0.0723379 0.072338 0.0723379 0.0723379 0.072338 0.0723379 0.0723379 0.0723379 0.0723379 0.0361689 0.036169 0.072338 0.072338 0.072338 0.072338 0.072338 0.072338 0.072338 0.072338 0.072338 0.072338 0.072338 0.072338 0.072338 0.072338 0.072338 0.072338 0.072338 0.072338 0.072338 0.072338 0.072338 0.072338 0.072338 0.036169 0.036169 0.072338 0.072338 0.072338 0.072338 0.072338 0.072338 0.072338 0.0723379 0.072338 0.072338 0.0723379 0.072338 0.072338 0.072338 0.072338 0.072338 0.0723379 0.0723379 0.072338 0.072338 0.0723379 0.072338 0.072338 0.0361689 0.036169 0.0723379 0.0723379 0.0723379 0.0723379 0.0723379 0.0723379 0.0723379 0.0723379 0.0723379 0.0723379 0.0723379 0.0723379 0.072338 0.0723379 0.0723379 0.072338 0.0723379 0.0723379 0.072338 0.0723379 0.0723379 0.072338 0.0723379 0.0361689 0.036169 0.072338 0.072338 0.072338 0.072338 0.072338 0.072338 0.072338 0.072338 0.072338 0.072338 0.072338 0.072338 0.072338 0.072338 0.072338 0.072338 0.072338 0.0723379 0.072338 0.072338 0.0723379 0.072338 0.072338 0.036169 0.036169 0.0723379 0.0723379 0.072338 0.072338 0.0723379 0.072338 0.072338 0.0723379 0.072338 0.072338 0.0723379 0.072338 0.072338 0.0723379 0.072338 0.072338 0.0723379 0.0723379 0.072338 0.072338 0.0723379 0.072338 0.072338 0.0361689 0.0180845 0.0361689 0.0361689 0.0361689 0.0361689 0.0361689 0.0361689 0.0361689 0.0361689 0.0361689 0.0361689 0.0361689 0.0361689 0.036169 0.0361689 0.0361689 0.036169 0.0361689 0.0361689 0.036169 0.0361689 0.0361689 0.036169 0.0361689 0.0180845 0.0180845 0.036169 0.036169 0.036169 0.036169 0.036169 0.036169 0.036169 0.036169 0.036169 0.036169 0.036169 0.036169 0.036169 0.036169 0.036169 0.036169 0.036169 0.036169 0.036169 0.036169 0.036169 0.036169 0.036169 0.0180845 0.036169 0.072338 0.072338 0.072338 0.072338 0.072338 0.072338 0.072338 0.072338 0.072338 0.072338 0.0723379 0.072338 0.072338 0.0723379 0.072338 0.072338 0.0723379 0.0723379 0.072338 0.072338 0.0723379 0.072338 0.072338 0.0361689 0.036169 0.072338 0.072338 0.072338 0.072338 0.072338 0.072338 0.072338 0.072338 0.072338 0.072338 0.0723379 0.072338 0.072338 0.0723379 0.072338 0.072338 0.0723379 0.0723379 0.072338 0.072338 0.0723379 0.072338 0.072338 0.0361689 0.036169 0.072338 0.072338 0.072338 0.072338 0.072338 0.072338 0.072338 0.0723379 0.072338 0.072338 0.0723379 0.072338 0.072338 0.0723379 0.072338 0.072338 0.0723379 0.0723379 0.072338 0.072338 0.0723379 0.072338 0.072338 0.0361689 0.036169 0.072338 0.072338 0.072338 0.072338 0.072338 0.072338 0.072338 0.072338 0.072338 0.072338 0.072338 0.072338 0.072338 0.072338 0.072338 0.072338 0.0723379 0.0723379 0.072338 0.072338 0.0723379 0.072338 0.072338 0.0361689 0.036169 0.072338 0.072338 0.072338 0.072338 0.072338 0.072338 0.072338 0.0723379 0.072338 0.072338 0.0723379 0.072338 0.072338 0.0723379 0.072338 0.072338 0.0723379 0.0723379 0.072338 0.072338 0.0723379 0.072338 0.072338 0.0361689 0.036169 0.072338 0.072338 0.072338 0.072338 0.072338 0.072338 0.072338 0.072338 0.072338 0.072338 0.0723379 0.072338 0.072338 0.072338 0.072338 0.072338 0.0723379 0.0723379 0.072338 0.072338 0.0723379 0.072338 0.072338 0.0361689 0.036169 0.072338 0.072338 0.072338 0.072338 0.072338 0.072338 0.072338 0.072338 0.072338 0.072338 0.072338 0.072338 0.072338 0.072338 0.072338 0.072338 0.0723379 0.0723379 0.072338 0.072338 0.0723379 0.072338 0.072338 0.0361689 0.036169 0.0723379 0.0723379 0.0723379 0.072338 0.0723379 0.0723379 0.072338 0.0723379 0.072338 0.072338 0.0723379 0.072338 0.072338 0.0723379 0.0723379 0.072338 0.0723379 0.0723379 0.072338 0.072338 0.0723379 0.072338 0.0723379 0.0361689 0.036169 0.072338 0.072338 0.072338 0.072338 0.072338 0.072338 0.072338 0.0723379 0.072338 0.072338 0.0723379 0.072338 0.072338 0.0723379 0.072338 0.072338 0.0723379 0.0723379 0.072338 0.072338 0.0723379 0.072338 0.072338 0.0361689 0.036169 0.072338 0.072338 0.072338 0.072338 0.072338 0.072338 0.072338 0.072338 0.072338 0.072338 0.0723379 0.072338 0.072338 0.0723379 0.072338 0.072338 0.0723379 0.0723379 0.072338 0.072338 0.0723379 0.072338 0.072338 0.0361689 0.03616