# vtk DataFile Version 5.1
vtk output
ASCII

DATASET UNSTRUCTURED_GRID
POINTS 2197 float
0 0 0
0.166667 0 0
0.333333 0 0
0.5 0 0
0.666667 0 0
0.833333 0 0
1 0 0
0 0.166667 0
0.166667 0.166667 0
0.333333 0.166667 0
0.5 0.166667 0
0.666667 0.166667 0
0.833333 0.166667 0
1 0.166667 0
0 0.333333 0
0.166667 0.333333 0
0.333333 0.333333 0
0.5 0.333333 0
0.666667 0.333333 0
0.833333 0.333333 0
1 0.333333 0
0 0.5 0
0.166667 0.5 0
0.333333 0.5 0
0.5 0.5 0
0.666667 0.5 0
0.833333 0.5 0
1 0.5 0
0 0.666667 0
0.166667 0.666667 0
0.333333 0.666667 0
0.5 0.666667 0
0.666667 0.666667 0
0.833333 0.666667 0
1 0.666667 0
0 0.833333 0
0.166667 0.833333 0
0.333333 0.833333 0
0.5 0.833333 0
0.666667 0.833333 0
0.833333 0.833333 0
1 0.833333 0
0 1 0
0.166667 1 0
0.333333 1 0
0.5 1 0
0.666667 1 0
0.833333 1 0
1 1 0
0 0 0.166667
0.166667 0 0.166667
0.333333 0 0.166667
0.5 0 0.166667
0.666667 0 0.166667
0.833333 0 0.166667
1 0 0.166667
0 0.166667 0.166667
0.166667 0.166667 0.166667
0.333333 0.166667 0.166667
0.5 0.166667 0.166667
0.666667 0.166667 0.166667
0.833333 0.166667 0.166667
1 0.166667 0.166667
0 0.333333 0.166667
0.166667 0.333333 0.166667
0.333333 0.333333 0.166667
0.5 0.333333 0.166667
0.666667 0.333333 0.166667
0.833333 0.333333 0.166667
1 0.333333 0.166667
0 0.5 0.166667
0.166667 0.5 0.166667
0.333333 0.5 0.166667
0.5 0.5 0.166667
0.666667 0.5 0.166667
0.833333 0.5 0.166667
1 0.5 0.166667
0 0.666667 0.166667
0.166667 0.666667 0.166667
0.333333 0.666667 0.166667
0.5 0.666667 0.166667
0.666667 0.666667 0.166667
0.833333 0.666667 0.166667
1 0.666667 0.166667
0 0.833333 0.166667
0.166667 0.833333 0.166667
0.333333 0.833333 0.166667
0.5 0.833333 0.166667
0.666667 0.833333 0.166667
0.833333 0.833333 0.166667
1 0.833333 0.166667
0 1 0.166667
0.166667 1 0.166667
0.333333 1 0.166667
0.5 1 0.166667
0.666667 1 0.166667
0.833333 1 0.166667
1 1 0.166667
0 0 0.333333
0.166667 0 0.333333
0.333333 0 0.333333
0.5 0 0.333333
0.666667 0 0.333333
0.833333 0 0.333333
1 0 0.333333
0 0.166667 0.333333
0.166667 0.166667 0.333333
0.333333 0.166667 0.333333
0.5 0.166667 0.333333
0.666667 0.166667 0.333333
0.833333 0.166667 0.333333
1 0.166667 0.333333
0 0.333333 0.333333
0.166667 0.333333 0.333333
0.333333 0.333333 0.333333
0.5 0.333333 0.333333
0.666667 0.333333 0.333333
0.833333 0.333333 0.333333
1 0.333333 0.333333
0 0.5 0.333333
0.166667 0.5 0.333333
0.333333 0.5 0.333333
0.5 0.5 0.333333
0.666667 0.5 0.333333
0.833333 0.5 0.333333
1 0.5 0.333333
0 0.666667 0.333333
0.166667 0.666667 0.333333
0.333333 0.666667 0.333333
0.5 0.666667 0.333333
0.666667 0.666667 0.333333
0.833333 0.666667 0.333333
1 0.666667 0.333333
0 0.833333 0.333333
0.166667 0.833333 0.333333
0.333333 0.833333 0.333333
0.5 0.833333 0.333333
0.666667 0.833333 0.333333
0.833333 0.833333 0.333333
1 0.833333 0.333333
0 1 0.333333
0.166667 1 0.333333
0.333333 1 0.333333
0.5 1 0.333333
0.666667 1 0.333333
0.833333 1 0.333333
1 1 0.333333
0 0 0.5
0.166667 0 0.5
0.333333 0 0.5
0.5 0 0.5
0.666667 0 0.5
0.833333 0 0.5
1 0 0.5
0 0.166667 0.5
0.166667 0.166667 0.5
0.333333 0.166667 0.5
0.5 0.166667 0.5
0.666667 0.166667 0.5
0.833333 0.166667 0.5
1 0.166667 0.5
0 0.333333 0.5
0.166667 0.333333 0.5
0.333333 0.333333 0.5
0.5 0.333333 0.5
0.666667 0.333333 0.5
0.833333 0.333333 0.5
1 0.333333 0.5
0 0.5 0.5
0.166667 0.5 0.5
0.333333 0.5 0.5
0.5 0.5 0.5
0.666667 0.5 0.5
0.833333 0.5 0.5
1 0.5 0.5
0 0.666667 0.5
0.166667 0.666667 0.5
0.333333 0.666667 0.5
0.5 0.666667 0.5
0.666667 0.666667 0.5
0.833333 0.666667 0.5
1 0.666667 0.5
0 0.833333 0.5
0.166667 0.833333 0.5
0.333333 0.833333 0.5
0.5 0.833333 0.5
0.666667 0.833333 0.5
0.833333 0.833333 0.5
1 0.833333 0.5
0 1 0.5
0.166667 1 0.5
0.333333 1 0.5
0.5 1 0.5
0.666667 1 0.5
0.833333 1 0.5
1 1 0.5
0 0 0.666667
0.166667 0 0.666667
0.333333 0 0.666667
0.5 0 0.666667
0.666667 0 0.666667
0.833333 0 0.666667
1 0 0.666667
0 0.166667 0.666667
0.166667 0.166667 0.666667
0.333333 0.166667 0.666667
0.5 0.166667 0.666667
0.666667 0.166667 0.666667
0.833333 0.166667 0.666667
1 0.166667 0.666667
0 0.333333 0.666667
0.166667 0.333333 0.666667
0.333333 0.333333 0.666667
0.5 0.333333 0.666667
0.666667 0.333333 0.666667
0.833333 0.333333 0.666667
1 0.333333 0.666667
0 0.5 0.666667
0.166667 0.5 0.666667
0.333333 0.5 0.666667
0.5 0.5 0.666667
0.666667 0.5 0.666667
0.833333 0.5 0.666667
1 0.5 0.666667
0 0.666667 0.666667
0.166667 0.666667 0.666667
0.333333 0.666667 0.666667
0.5 0.666667 0.666667
0.666667 0.666667 0.666667
0.833333 0.666667 0.666667
1 0.666667 0.666667
0 0.833333 0.666667
0.166667 0.833333 0.666667
0.333333 0.833333 0.666667
0.5 0.833333 0.666667
0.666667 0.833333 0.666667
0.833333 0.833333 0.666667
1 0.833333 0.666667
0 1 0.666667
0.166667 1 0.666667
0.333333 1 0.666667
0.5 1 0.666667
0.666667 1 0.666667
0.833333 1 0.666667
1 1 0.666667
0 0 0.833333
0.166667 0 0.833333
0.333333 0 0.833333
0.5 0 0.833333
0.666667 0 0.833333
0.833333 0 0.833333
1 0 0.833333
0 0.166667 0.833333
0.166667 0.166667 0.833333
0.333333 0.166667 0.833333
0.5 0.166667 0.833333
0.666667 0.166667 0.833333
0.833333 0.166667 0.833333
1 0.166667 0.833333
0 0.333333 0.833333
0.166667 0.333333 0.833333
0.333333 0.333333 0.833333
0.5 0.333333 0.833333
0.666667 0.333333 0.833333
0.833333 0.333333 0.833333
1 0.333333 0.833333
0 0.5 0.833333
0.166667 0.5 0.833333
0.333333 0.5 0.833333
0.5 0.5 0.833333
0.666667 0.5 0.833333
0.833333 0.5 0.833333
1 0.5 0.833333
0 0.666667 0.833333
0.166667 0.666667 0.833333
0.333333 0.666667 0.833333
0.5 0.666667 0.833333
0.666667 0.666667 0.833333
0.833333 0.666667 0.833333
1 0.666667 0.833333
0 0.833333 0.833333
0.166667 0.833333 0.833333
0.333333 0.833333 0.833333
0.5 0.833333 0.833333
0.666667 0.833333 0.833333
0.833333 0.833333 0.833333
1 0.833333 0.833333
0 1 0.833333
0.166667 1 0.833333
0.333333 1 0.833333
0.5 1 0.833333
0.666667 1 0.833333
0.833333 1 0.833333
1 1 0.833333
0 0 1
0.166667 0 1
0.333333 0 1
0.5 0 1
0.666667 0 1
0.833333 0 1
1 0 1
0 0.166667 1
0.166667 0.166667 1
0.333333 0.166667 1
0.5 0.166667 1
0.666667 0.166667 1
0.833333 0.166667 1
1 0.166667 1
0 0.333333 1
0.166667 0.333333 1
0.333333 0.333333 1
0.5 0.333333 1
0.666667 0.333333 1
0.833333 0.333333 1
1 0.333333 1
0 0.5 1
0.166667 0.5 1
0.333333 0.5 1
0.5 0.5 1
0.666667 0.5 1
0.833333 0.5 1
1 0.5 1
0 0.666667 1
0.166667 0.666667 1
0.333333 0.666667 1
0.5 0.666667 1
0.666667 0.666667 1
0.833333 0.666667 1
1 0.666667 1
0 0.833333 1
0.166667 0.833333 1
0.333333 0.833333 1
0.5 0.833333 1
0.666667 0.833333 1
0.833333 0.833333 1
1 0.833333 1
0 1 1
0.166667 1 1
0.333333 1 1
0.5 1 1
0.666667 1 1
0.833333 1 1
1 1 1
0.0833333 0 0
0.166667 0 0.0833333
0.0833333 0 0.166667
0 0 0.0833333
0 0.0833333 0
0.166667 0.0833333 0
0.166667 0.0833333 0.166667
0 0.0833333 0.166667
0.0833333 0.166667 0
0.166667 0.166667 0.0833333
0.0833333 0.166667 0.166667
0 0.166667 0.0833333
0.0833333 0 0.0833333
0.0833333 0.0833333 0
0.166667 0.0833333 0.0833333
0.0833333 0.0833333 0.166667
0 0.0833333 0.0833333
0.0833333 0.166667 0.0833333
0.0833333 0.0833333 0.0833333
0.25 0 0
0.333333 0 0.0833333
0.25 0 0.166667
0.333333 0.0833333 0
0.333333 0.0833333 0.166667
0.25 0.166667 0
0.333333 0.166667 0.0833333
0.25 0.166667 0.166667
0.25 0 0.0833333
0.25 0.0833333 0
0.333333 0.0833333 0.0833333
0.25 0.0833333 0.166667
0.25 0.166667 0.0833333
0.25 0.0833333 0.0833333
0.416667 0 0
0.5 0 0.0833333
0.416667 0 0.166667
0.5 0.0833333 0
0.5 0.0833333 0.166667
0.416667 0.166667 0
0.5 0.166667 0.0833333
0.416667 0.166667 0.166667
0.416667 0 0.0833333
0.416667 0.0833333 0
0.5 0.0833333 0.0833333
0.416667 0.0833333 0.166667
0.416667 0.166667 0.0833333
0.416667 0.0833333 0.0833333
0.583333 0 0
0.666667 0 0.0833333
0.583333 0 0.166667
0.666667 0.0833333 0
0.666667 0.0833333 0.166667
0.583333 0.166667 0
0.666667 0.166667 0.0833333
0.583333 0.166667 0.166667
0.583333 0 0.0833333
0.583333 0.0833333 0
0.666667 0.0833333 0.0833333
0.583333 0.0833333 0.166667
0.583333 0.166667 0.0833333
0.583333 0.0833333 0.0833333
0.75 0 0
0.833333 0 0.0833333
0.75 0 0.166667
0.833333 0.0833333 0
0.833333 0.0833333 0.166667
0.75 0.166667 0
0.833333 0.166667 0.0833333
0.75 0.166667 0.166667
0.75 0 0.0833333
0.75 0.0833333 0
0.833333 0.0833333 0.0833333
0.75 0.0833333 0.166667
0.75 0.166667 0.0833333
0.75 0.0833333 0.0833333
0.916667 0 0
1 0 0.0833333
0.916667 0 0.166667
1 0.0833333 0
1 0.0833333 0.166667
0.916667 0.166667 0
1 0.166667 0.0833333
0.916667 0.166667 0.166667
0.916667 0 0.0833333
0.916667 0.0833333 0
1 0.0833333 0.0833333
0.916667 0.0833333 0.166667
0.916667 0.166667 0.0833333
0.916667 0.0833333 0.0833333
0 0.25 0
0.166667 0.25 0
0.166667 0.25 0.166667
0 0.25 0.166667
0.0833333 0.333333 0
0.166667 0.333333 0.0833333
0.0833333 0.333333 0.166667
0 0.333333 0.0833333
0.0833333 0.25 0
0.166667 0.25 0.0833333
0.0833333 0.25 0.166667
0 0.25 0.0833333
0.0833333 0.333333 0.0833333
0.0833333 0.25 0.0833333
0.333333 0.25 0
0.333333 0.25 0.166667
0.25 0.333333 0
0.333333 0.333333 0.0833333
0.25 0.333333 0.166667
0.25 0.25 0
0.333333 0.25 0.0833333
0.25 0.25 0.166667
0.25 0.333333 0.0833333
0.25 0.25 0.0833333
0.5 0.25 0
0.5 0.25 0.166667
0.416667 0.333333 0
0.5 0.333333 0.0833333
0.416667 0.333333 0.166667
0.416667 0.25 0
0.5 0.25 0.0833333
0.416667 0.25 0.166667
0.416667 0.333333 0.0833333
0.416667 0.25 0.0833333
0.666667 0.25 0
0.666667 0.25 0.166667
0.583333 0.333333 0
0.666667 0.333333 0.0833333
0.583333 0.333333 0.166667
0.583333 0.25 0
0.666667 0.25 0.0833333
0.583333 0.25 0.166667
0.583333 0.333333 0.0833333
0.583333 0.25 0.0833333
0.833333 0.25 0
0.833333 0.25 0.166667
0.75 0.333333 0
0.833333 0.333333 0.0833333
0.75 0.333333 0.166667
0.75 0.25 0
0.833333 0.25 0.0833333
0.75 0.25 0.166667
0.75 0.333333 0.0833333
0.75 0.25 0.0833333
1 0.25 0
1 0.25 0.166667
0.916667 0.333333 0
1 0.333333 0.0833333
0.916667 0.333333 0.166667
0.916667 0.25 0
1 0.25 0.0833333
0.916667 0.25 0.166667
0.916667 0.333333 0.0833333
0.916667 0.25 0.0833333
0 0.416667 0
0.166667 0.416667 0
0.166667 0.416667 0.166667
0 0.416667 0.166667
0.0833333 0.5 0
0.166667 0.5 0.0833333
[...]
POINT_DATA 2197
SCALARS weights float 1
LOOKUP_TABLE default
0.171468 0.342936 0.342936 0.342936 0.342936 0.342936 0.171468 0.342936 0.685871 0.685871 0.685871 0.685871 0.685871 0.342936 0.342936 0.685871 0.685871 0.685871 0.685871 0.685871 0.342936 0.342936 0.685871 0.685871 0.685871 0.685871 0.685871 0.342936 0.342936 0.685871 0.685871 0.685871 0.685871 0.685871 0.342936 0.342936 0.685871 0.685871 0.685871 0.685871 0.685871 0.342936 0.171468 0.342936 0.342936 0.342936 0.342936 0.342936 0.171468 0.342936 0.685871 0.685871 0.685871 0.685871 0.685871 0.342936 0.685871 1.37174 1.37174 1.37174 1.37174 1.37174 0.685871 0.685871 1.37174 1.37174 1.37174 1.37174 1.37174 0.685871 0.685871 1.37174 1.37174 1.37174 1.37174 1.37174 0.685871 0.685871 1.37174 1.37174 1.37174 1.37174 1.37174 0.685871 0.685871 1.37174 1.37174 1.37174 1.37174 1.37174 0.685871 0.342936 0.685871 0.685871 0.685871 0.685871 0.685871 0.342935 0.342936 0.685871 0.685871 0.685871 0.685871 0.685871 0.342936 0.685871 1.37174 1.37174 1.37174 1.37174 1.37174 0.685871 0.685871 1.37174 1.37174 1.37174 1.37174 1.37174 0.685871 0.685871 1.37174 1.37174 1.37174 1.37174 1.37174 0.685871 0.685871 1.37174 1.37174 1.37174 1.37174 1.37174 0.685871 0.685871 1.37174 1.37174 1.37174 1.37174 1.37174 0.685871 0.342936 0.685871 0.685871 0.685871 0.685871 0.685871 0.342935 0.342936 0.685871 0.685871 0.685871 0.685871 0.685871 0.342936 0.685871 1.37174 1.37174 1.37174 1.37174 1.37174 0.685871 0.685871 1.37174 1.37174 1.37174 1.37174 1.37174 0.685871 0.685871 1.37174 1.37174 1.37174 1.37174 1.37174 0.685871 0.685871 1.37174 1.37174 1.37174 1.37174 1.37174 0.685871 0.685871 1.37174 1.37174 1.37174 1.37174 1.37174 0.685871 0.342935 0.685871 0.685871 0.685871 0.685871 0.685871 0.342935 0.342936 0.685871 0.685871 0.685871 0.685871 0.685871 0.342936 0.685871 1.37174 1.37174 1.37174 1.37174 1.37174 0.685871 0.685871 1.37174 1.37174 1.37174 1.37174 1.37174 0.685871 0.685871 1.37174 1.37174 1.37174 1.37174 1.37174 0.685871 0.685871 1.37174 1.37174 1.37174 1.37174 1.37174 0.685871 0.685871 1.37174 1.37174 1.37174 1.37174 1.37174 0.685871 0.342936 0.685871 0.685871 0.685871 0.685871 0.685871 0.342935 0.342936 0.685871 0.685871 0.685871 0.685871 0.685871 0.342936 0.685871 1.37174 1.37174 1.37174 1.37174 1.37174 0.685871 0.685871 1.37174 1.37174 1.37174 1.37174 1.37174 0.685871 0.685871 1.37174 1.37174 1.37174 1.37174 1.37174 0.685871 0.685871 1.37174 1.37174 1.37174 1.37174 1.37174 0.685871 0.685871 1.37174 1.37174 1.37174 1.37174 1.37174 0.685871 0.342936 0.685871 0.685871 0.685871 0.685871 0.685871 0.342935 0.171468 0.342936 0.342936 0.342936 0.342936 0.342936 0.171468 0.342936 0.685871 0.685871 0.685871 0.685871 0.685871 0.342936 0.342936 0.685871 0.685871 0.685871 0.685871 0.685871 0.342936 0.342936 0.685871 0.685871 0.685871 0.685871 0.685871 0.342936 0.342936 0.685871 0.685871 0.685871 0.685871 0.685871 0.342936 0.342936 0.685871 0.685871 0.685871 0.685871 0.685871 0.342935 0.171468 0.342935 0.342935 0.342935 0.342936 0.342935 0.171468 0.171468 0.342936 0.342936 0.171468 0.171468 0.342936 0.685871 0.342936 0.342936 0.685871 0.685871 0.342936 0.171468 0.171468 0.342936 0.342936 0.171468 0.342936 0.171468 0.171468 0.342936 0.342936 0.342936 0.685871 0.342936 0.685871 0.685871 0.171468 0.171468 0.342936 0.342936 0.342936 0.171468 0.171468 0.342936 0.342936 0.342936 0.685871 0.342936 0.685871 0.685871 0.171468 0.171468 0.342936 0.342936 0.342936 0.171468 0.171468 0.342936 0.342936 0.342936 0.685871 0.342936 0.685871 0.685871 0.171468 0.171468 0.342936 0.342936 0.342936 0.171468 0.171468 0.342936 0.342936 0.342936 0.685871 0.342936 0.685871 0.685871 0.171468 0.171468 0.342936 0.342936 0.342936 0.171468 0.171468 0.171468 0.342936 0.171468 0.342936 0.342936 0.342936 0.685871 0.171468 0.171468 0.171468 0.342936 0.342936 0.171468 0.171468 0.342936 0.685871 0.342936 0.342936 0.685871 0.685871 0.342936 0.171468 0.342936 0.342936 0.171468 0.342936 0.171468 0.342936 0.685871 0.342936 0.685871 0.685871 0.171468 0.342936 0.342936 0.342936 0.171468 0.342936 0.685871 0.342936 0.685871 0.685871 0.171468 0.342936 0.342936 0.342936 0.171468 0.342936 0.685871 0.342936 0.685871 0.685871 0.171468 0.342936 0.342936 0.342936 0.171468 0.342936 0.685871 0.342936 0.685871 0.685871 0.171468 0.342936 0.342936 0.342936 0.171468 0.171468 0.342936 0.342936 0.342936 0.685871 0.171468 0.171468 0.342936 0.342936 0.171468 0.171468 0.342936 0.685871 0.342936 0.342936 0.685871 0.685871 0.342936 0.171468 0.342936 0.342936 0.171468 0.342936 0.171468 0.342936 0.685871 0.342936 0.685871 0.685871 0.171468 0.342936 0.342936 0.342936 0.171468 0.342936 0.685871 0.342936 0.685871 0.685871 0.171468 0.342936 0.342936 0.342936 0.171468 0.342936 0.685871 0.342936 0.685871 0.685871 0.171468 0.342936 0.342936 0.342936 0.171468 0.342936 0.685871 0.342936 0.685871 0.685871 0.171468 0.342936 0.342936 0.342936 0.171468 0.171468 0.342936 0.342936 0.342936 0.685871 0.171468 0.171468 0.342936 0.342936 0.171468 0.171468 0.342936 0.685871 0.342936 0.342936 0.685871 0.685871 0.342936 0.171468 0.342936 0.342936 0.171468 0.342936 0.171468 0.342936 0.685871 0.342936 0.685871 0.685871 0.171468 0.342936 0.342936 0.342936 0.171468 0.342936 0.685871 0.342936 0.685871 0.685871 0.171468 0.342936 0.342936 0.342936 0.171468 0.342936 0.685871 0.342936 0.685871 0.685871 0.171468 0.342936 0.342936 0.342936 0.171468 0.342936 0.685871 0.342936 0.685871 0.685871 0.171468 0.342936 0.342936 0.342936 0.171468 0.171468 0.342936 0.342936 0.342936 0.685871 0.171468 0.171468 0.342936 0.342936 0.171468 0.171468 0.342936 0.685871 0.342936 0.342936 0.685871 0.685871 0.342936 0.171468 0.342936 0.342936 0.171468 0.342936 0.171468 0.342936 0.685871 0.342936 0.685871 0.685871 0.171468 0.342936 0.342936 0.342936 0.171468 0.342936 0.685871 0.342936 0.685871 0.685871 0.171468 0.342936 0.342936 0.342936 0.171468 0.342936 0.685871 0.342936 0.685871 0.685871 0.171468 0.342936 0.342936 0.342936 0.171468 0.342936 0.685871 0.342936 0.685871 0.685871 0.171468 0.342936 0.342936 0.342936 0.171468 0.171468 0.342936 0.342936 0.342936 0.685871 0.171468 0.171468 0.342936 0.342936 0.171468 0.171468 0.342936 0.685871 0.342936 0.171468 0.342936 0.342936 0.171468 0.171468 0.342936 0.342936 0.171468 0.171468 0.171468 0.342936 0.685871 0.171468 0.342936 0.342936 0.171468 0.342936 0.342936 0.171468 0.171468 0.342936 0.685871 0.171468 0.342936 0.342935 0.171468 0.342936 0.342935 0.171468 0.171468 0.342936 0.685871 0.171468 0.342936 0.342936 0.171468 0.342936 0.342936 0.171468 0.171468 0.342936 0.685871 0.171468 0.342936 0.342936 0.171468 0.342936 0.342936 0.171468 0.171468 0.171468 0.342935 0.171468 0.171468 0.342935 0.171468 0.171468 0.342935 0.171468 0.171468 0.342936 0.342936 0.171468 0.685871 0.342936 0.685871 0.685871 0.342936 0.171468 0.342936 0.342936 0.171468 0.342936 0.171468 0.342936 0.342936 0.685871 0.685871 0.685871 0.171468 0.342936 0.342936 0.342936 0.171468 0.342936 0.342936 0.685871 0.685871 0.685871 0.171468 0.342936 0.342936 0.342936 0.171468 0.342936 0.342936 0.685871 0.685871 0.685871 0.171468 0.342936 0.342936 0.342936 0.171468 0.342936 0.342936 0.685871 0.685871 0.685871 0.171468 0.342936 0.342936 0.342936 0.171468 0.171468 0.342936 0.342936 0.342936 0.685871 0.171468 0.171468 0.342936 0.342936 0.171468 0.685871 0.342936 0.685871 0.685871 0.342936 0.342936 0.342936 0.171468 0.342936 0.171468 0.685871 0.685871 0.685871 0.342936 0.342936 0.342936 0.171468 0.685871 0.685871 0.685871 0.342936 0.342936 0.342936 0.171468 0.685871 0.685871 0.685871 0.342936 0.342936 0.342936 0.171468 0.685871 0.685871 0.685871 0.342936 0.342936 0.342936 0.171468 0.342936 0.342936 0.685871 0.171468 0.342936 0.342936 0.171468 0.685871 0.342936 0.685871 0.685871 0.342936 0.342936 0.342936 0.171468 0.342936 0.171468 0.685871 0.685871 0.685871 0.342936 0.342936 0.342936 0.171468 0.685871 0.685871 0.685871 0.342936 0.342936 0.342936 0.171468 0.685871 0.685871 0.685871 0.342936 0.342936 0.342936 0.171468 0.685871 0.685871 0.685871 0.342936 0.342936 0.342936 0.171468 0.342936 0.342936 0.685871 0.171468 0.342936 0.342936 0.171468 0.685871 0.342936 0.685871 0.685871 0.342936 0.342936 0.342936 0.171468 0.342936 0.171468 0.685871 0.685871 0.685871 0.342936 0.342936 0.342936 0.171468 0.685871 0.685871 0.685871 0.342936 0.342936 0.342936 0.171468 0.685871 0.685871 0.685871 0.342936 0.342936 0.342936 0.171468 0.685871 0.685871 0.685871 0.342936 0.342936 0.342936 0.171468 0.342936 0.342936 0.685871 0.171468 0.342936 0.342936 0.171468 0.685871 0.342936 0.685871 0.685871 0.342936 0.342936 0.342936 0.171468 0.342936 0.171468 0.685871 0.685871 0.685871 0.342936 0.342936 0.342936 0.171468 0.685871 0.685871 0.685871 0.342936 0.342936 0.342936 0.171468 0.685871 0.685871 0.685871 0.342936 0.342936 0.342936 0.171468 0.685871 0.685871 0.685871 0.342936 0.342936 0.342936 0.171468 0.342936 0.342936 0.685871 0.171468 0.342936 0.342936 0.171468 0.685871 0.342936 0.342936 0.342936 0.171468 0.342936 0.342936 0.171468 0.171468 0.171468 0.685871 0.342936 0.342936 0.342936 0.342936 0.171468 0.171468 0.685871 0.342936 0.342935 0.342936 0.342935 0.171468 0.171468 0.685871 0.342936 0.342936 0.342936 0.342936 0.171468 0.171468 0.685871 0.342936 0.342936 0.342936 0.342936 0.171468 0.171468 0.342935 0.171468 0.342935 0.171468 0.342935 0.171468 0.171468 0.342936 0.342936 0.171468 0.685871 0.342936 0.685871 0.685871 0.342936 0.171468 0.342936 0.342936 0.171468 0.342936 0.171468 0.342936 0.342936 0.685871 0.685871 0.685871 0.171468 0.342936 0.342936 0.342936 0.171468 0.342936 0.342936 0.685871 0.685871 0.685871 0.171468 0.342936 0.342936 0.342936 0.171468 0.342936 0.342936 0.685871 0.685871 0.685871 0.171468 0.342936 0.342936 0.342936 0.171468 0.342936 0.342936 0.685871 0.685871 0.685871 0.171468 0.342936 0.342936 0.342936 0.171468 0.171468 0.342936 0.342936 0.342936 0.685871 0.171468 0.171468 0.342936 0.342936 0.171468 0.685871 0.342936 0.685871 0.685871 0.342936 0.342936 0.342936 0.171468 0.342936 0.171468 0.685871 0.685871 0.685871 0.342936 0.342936 0.342936 0.171468 0.685871 0.685871 0.685871 0.342936 0.342936 0.342936 0.171468 0.685871 0.685871 0.685871 0.342936 0.342936 0.342936 0.171468 0.685871 0.685871 0.685871 0.342936 0.342936 0.342936 0.171468 0.342936 0.342936 0.685871 0.171468 0.342936 0.342936 0.171468 0.685871 0.342936 0.685871 0.685871 0.342936 0.342936 0.342936 0.171468 0.342936 0.171468 0.685871 0.685871 0.685871 0.342936 0.342936 0.342936 0.171468 0.685871 0.685871 0.685871 0.342936 0.342936 0.342936 0.171468 0.685871 0.685871 0.685871 0.342936 0.342936 0.342936 0.171468 0.685871 0.685871 0.685871 0.342936 0.342936 0.342936 0.171468 0.342936 0.342936 0.685871 0.171468 0.342936 0.342936 0.171468 0.685871 0.342936 0.685871 0.685871 0.342936 0.342936 0.342936 0.171468 0.342936 0.171468 0.685871 0.685871 0.685871 0.342936 0.342936 0.342936 0.171468 0.685871 0.685871 0.685871 0.342936 0.342936 0.342936 0.171468 0.685871 0.685871 0.685871 0.342936 0.342936 0.342936 0.171468 0.685871 0.685871 0.685871 0.342936 0.342936 0.342936 0.171468 0.342936 0.342936 0.685871 0.171468 0.342936 0.342936 0.171468 0.685871 0.342936 0.685871 0.685871 0.342936 0.342936 0.342936 0.171468 0.342936 0.171468 0.685871 0.685871 0.685871 0.342936 0.342936 0.342936 0.171468 0.685871 0.685871 0.685871 0.342936 0.342936 0.342935 0.171468 0.685871 0.685871 0.685871 0.342936 0.342936 0.342936 0.171468 0.685871 0.685871 0.685871 0.342936 0.342936 0.342936 0.171468 0.342936 0.342936 0.685871 0.171468 0.342936 0.342936 0.171468 0.685871 0.342935 0.342935 0.342935 0.171468 0.342935 0.342935 0.171468 0.171468 0.171468 0.685871 0.342935 0.342936 0.342935 0.342936 0.171468 0.171468 0.685871 0.342935 0.342935 0.342935 0.342935 0.171468 0.171468 0.685871 0.342936 0.342936 0.342936 0.342936 0.171468 0.171468 0.685871 0.342935 0.342936 0.342935 0.342936 0.171468 0.171468 0.342935 0.171468 0.342935 0.171468 0.342935 0.171468 0.171468 0.342936 0.342936 0.171468 0.685871 0.342936 0.685871 0.685871 0.342936 0.171468 0.342936 0.342936 0.171468 0.342936 0.171468 0.342936 0.342936 0.685871 0.685871 0.685871 0.171468 0.342936 0.342936 0.342936 0.171468 0.342936 0.342936 0.685871 0.685871 0.685871 0.171468 0.342936 0.342936 0.342936 0.171468 0.342936 0.342936 0.685871 0.685871 0.685871 0.171468 0.342936 0.342936 0.342936 0.171468 0.342936 0.342936 0.685871 0.685871 0.685871 0.171468 0.342936 0.342936 0.342936 0.171468 0.171468 0.342936 0.342936 0.342936 0.685871 0.171468 0.171468 0.342936 0.342936 0.171468 0.685871 0.342936 0.685871 0.685871 0.342936 0.342936 0.342936 0.171468 0.342936 0.171468 0.685871 0.685871 0.685871 0.342936 0.342936 0.342936 0.171468 0.685871 0.685871 0.685871 0.342936 0.342936 0.342936 0.171468 0.685871 0.685871 0.685871 0.342936 0.342936 0.342936 0.171468 0.685871 0.685871 0.685871 0.342936 0.342936 0.342936 0.171468 0.342936 0.342936 0.685871 0.171468 0.342936 0.342936 0.171468 0.685871 0.342936 0.685871 0.685871 0.342936 0.342936 0.342936 0.171468 0.342936 0.171468 0.685871 0.685871 0.685871 0.342936 0.342936 0.342936 0.171468 0.685871 0.685871 0.685871 0.342936 0.342936 0.342936 0.171468 0.685871 0.685871 0.685871 0.342936 0.342936 0.342936 0.171468 0.685871 0.685871 0.685871 0.342936 0.342936 0.342936 0.171468 0.342936 0.342936 0.685871 0.171468 0.342936 0.342936 0.171468 0.685871 0.342936 0.685871 0.685871 0.342936 0.342936 0.342936 0.171468 0.342936 0.171468 0.685871 0.685871 0.685871 0.342936 0.342936 0.342936 0.171468 0.685871 0.685871 0.685871 0.342936 0.342936 0.342936 0.171468 0.685871 0.685871 0.685871 0.342936 0.342936 0.342936 0.171468 0.685871 0.685871 0.685871 0.342936 0.342936 0.342936 0.171468 0.342936 0.342936 0.685871 0.171468 0.342936 0.342936 0.171468 0.685871 0.342936 0.685871 0.685871 0.342936 0.342936 0.342936 0.171468 0.342936 0.171468 0.685871 0.685871 0.685871 0.342936 0.342936 0.342936 0.171468 0.685871 0.685871 0.685871 0.342936 0.342936 0.342936 0.171468 0.685871 0.685871 0.685871 0.342936 0.342936 0.342936 0.171468 0.685871 0.685871 0.685871 0.342936 0.342936 0.342936 0.171468 0.342936 0.342936 0.685871 0.171468 0.342936 0.342936 0.171468 0.685871 0.342936 0.342936 0.342936 0.171468 0.342936 0.342936 0.171468 0.171468 0.171468 0.685871 0.342936 0.342936 0.342936 0.342936 0.171468 0.171468 0.685871 0.342936 0.342935 0.342936 0.342935 0.171468 0.171468 0.685871 0.342936 0.342936 0.342936 0.342936 0.171468 0.171468 0.685871 0.342935 0.342936 0.342935 0.342936 0.171468 0.171468 0.342935 0.171468 0.342935 0.171468 0.342935 0.171468 0.171468 0.342936 0.342936 0.171468 0.685871 0.342936 0.685871 0.685871 0.342936 0.171468 0.342936 0.342936 0.171468 0.342936 0.171468 0.342936 0.342936 0.685871 0.685871 0.685871 0.171468 0.342936 0.342936 0.342936 0.171468 0.342936 0.342936 0.685871 0.685871 0.685871 0.171468 0.342936 0.342936 0.342936 0.171468 0.342936 0.342936 0.685871 0.685871 0.685871 0.171468 0.342936 0.342936 0.342936 0.171468 0.342936 0.342936 0.685871 0.685871 0.685871 0.171468 0.342936 0.342936 0.342936 0.171468 0.171468 0.342936 0.342936 0.342936 0.685871 0.171468 0.171468 0.342936 0.342936 0.171468 0.685871 0.342936 0.685871 0.685871 0.342936 0.342936 0.342936 0.171468 0.342936 0.171468 0.685871 0.685871 0.685871 0.342936 0.342936 0.342936 0.171468 0.685871 0.685871 0.685871 0.342936 0.342936 0.342936 0.171468 0.685871 0.685871 0.685871 0.342936 0.342936 0.342936 0.171468 0.685871 0.685871 0.685871 0.342936 0.342936 0.342936 0.171468 0.342936 0.342936 0.685871 0.171468 0.342936 0.342936 0.171468 0.685871 0.342936 0.685871 0.685871 0.342936 0.342936 0.342936 0.171468 0.342936 0.171468 0.685871 0.685871 0.685871 0.342936 0.342936 0.342936 0.171468 0.685871 0.685871 0.685871 0.342936 0.342936 0.342936 0.171468 0.685871 0.685871 0.685871 0.342936 0.342936 0.342936 0.171468 0.685871 0.685871 0.685871 0.342936 0.342936 0.342936 0.171468 0.342936 0.342936 0.685871 0.171468 0.342936 0.342936 0.171468 0.685871 0.342936 0.685871 0.685871 0.342936 0.342936 0.342936 0.171468 0.342936 0.171468 0.685871 0.685871 0.685871 0.342936 0.342936 0.342936 0.171468 0.685871 0.685871 0.685871 0.342936 0.342936 0.342936 0.171468 0.685871 0.685871 0.685871 0.342936 0.342936 0.342936 0.171468 0.685871 0.685871 0.685871 0.342936 0.342936 0.342936 0.171468 0.342936 0.342936 0.685871 0.171468 0.342936 0.342936 0.171468 0.685871 0.342936 0.685871 0.685871 0.342936 0.342936 0.342936 0.171468 0.342936 0.171468 0.685871 0.685871 0.685871 0.342936 0.342936 0.342936 0.171468 0.685871 0.685871 0.685871 0.342936 0.342936 0.342936 0.171468 0.685871 0.685871 0.685871 0.342936 0.342936 0.342936 0.171468 0.685871 0.685871 0.685871 0.342936 0.342936 0.342936 0.171468 0.342936 0.342936 0.685871 0.171468 0.342936 0.342936 0.171468 0.685871 0.342936 0.342936 0.342936 0.171468 0.342936 0.342936 0.171468 0.171468 0.171468 0.685871 0.342936 0.342936 0.342936 0.342936 0.171468 0.171468 0.685871 0.342936 0.342935 0.342936 0.342935 0.171468 0.171468 0.685871 0.342936 0.342936 0.342936 0.342936 0.171468 0.171468 0.685871 0.342935 0.342936 0.342935 0.342936 0.171468 0.171468 0.342935 0.171468 0.342935 0.171468 0.342935 0.171468 0.171468 0.342936 0.171468 0.171468 0.342936 0.171468 0.685871 0.342936 0.342936 0.171468 0.342936 0.171468 0.171468 0.342936 0.171468 0.342936 0.171468 0.342936 0.685871 0.342936 0.171468 0.342936 0.171468 0.342936 0.171468 0.342936 0.171468 0.342936 0.685871 0.342936 0.171468 0.342936 0.171468 0.342936 0.171468 0.342936 0.171468 0.342936 0.685871 0.342936 0.171468 0.342936 0.171468 0.342936 0.171468 0.342936 0.171468 0.342936 0.685871 0.342936 0.171468 0.342936 0.171468 0.342936 0.171468 0.171468 0.171468 0.171468 0.342936 0.342936 0.171468 0.171468 0.171468 0.342936 0.171468 0.342936 0.171468 0.685871 0.342936 0.342936 0.342936 0.171468 0.171468 0.342936 0.171468 0.342936 0.685871 0.342936 0.342936 0.171468 0.342936 0.171468 0.342936 0.685871 0.342936 0.342936 0.171468 0.342936 0.171468 0.342936 0.685871 0.342936 0.342936 0.171468 0.342936 0.171468 0.342936 0.685871 0.342936 0.342936 0.171468 0.342936 0.171468 0.171468 0.342936 0.342936 0.171468 0.171468 0.342936 0.171468 0.342936 0.171468 0.685871 0.342936 0.342936 0.342936 0.171468 0.171468 0.342936 0.171468 0.342936 0.685871 0.342936 0.342936 0.171468 0.342936 0.171468 0.342936 0.685871 0.342936 0.342936 0.171468 0.342936 0.171468 0.342936 0.685871 0.342936 0.342936 0.171468 0.342936 0.171468 0.342936 0.685871 0.342936 0.342936 0.171468 0.342936 0.171468 0.171468 0.342936 0.342936 0.171468 0.171468 0.342936 0.171468 0.342936 0.171468 0.685871 0.342936 0.342936 0.342936 0.171468 0.171468 0.342936 0.171468 0.342936 0.685871 0.342936 0.342936 0.171468 0.342936 0.171468 0.342936 0.685871 0.342936 0.342936 0.171468 0.342936 0.171468 0.342936 0.685871 0.342936 0.342936 0.171468 0.342936 0.171468 0.342936 0.685871 0.342936 0.342936 0.171468 0.342936 0.171468 0.171468 0.342936 0.342936 0.171468 0.171468 0.342936 0.171468 0.342936 0.171468 0.685871 0.342936 0.342936 0.342936 0.171468 0.171468 0.342936 0.171468 0.342936 0.685871 0.342936 0.342936 0.171468 0.342936 0.171468 0.342936 0.685871 0.342936 0.342936 0.171468 0.342936 0.171468 0.342936 0.685871 0.342936 0.342936 0.171468 0.342936 0.171468 0.342936 0.685871 0.342936 0.342936 0.171468 0.342936 0.171468 0.171468 0.342935 0.342935 0.171468 0.171468 0.342935 0.171468 0.342935 0.171468 0.342935 0.171468 0.171468 0.342935 0.171468 0.171468 0.171468 0.171468 0.342935 0.342935 0.171468 0.342935 0.171468 0.171468 0.171468 0.342935 0.342935 0.171468 0.342935 0.171468 0.171468 0.171468 0.342936 0.342936 0.171468 0.342936 0.171468 0.171468 0.171468 0.342935 0.342935 0.171468 0.342935 0.171468 0.171468 0.171468 0.171468 0.171468 0.171468 0.171468 0.171468 0.171468 0.171468 
SCALARS u_norm float 1
LOOKUP_TABLE default