# vtk DataFile Version 5.1
vtk output
ASCII

DATASET UNSTRUCTURED_GRID
POINTS 4913 float
0.166667 0 0
0.172347 -0.0513464 -0.0731846
0.297266 -0.0769262 -0.119259
0.398292 -0.107834 -0.110339
0.504338 -0.126952 -0.108749
0.616557 -0.125107 -0.111736
0.729232 -0.101885 -0.112713
0.837895 -0.0551406 -0.0677579
0.833333 0 0
0.166667 0.125 0
0.225076 0.0848003 -0.0785905
0.300293 0.0623797 -0.108074
0.405575 0.0371595 -0.113751
0.510353 0.0217356 -0.119917
0.609702 0.0243499 -0.119911
0.705932 0.0460086 -0.114474
0.790789 0.0806824 -0.0794116
0.833333 0.125 0
0.166667 0.25 0
0.230224 0.218382 -0.0825634
0.306172 0.210725 -0.115555
0.398732 0.190057 -0.125739
0.504079 0.177311 -0.132436
0.603078 0.180177 -0.131329
0.701146 0.197836 -0.121625
0.790097 0.225727 -0.0821493
0.833333 0.25 0
0.166667 0.375 0
0.227985 0.358233 -0.0858811
0.298428 0.353931 -0.1182
0.392065 0.343261 -0.131407
0.499283 0.338394 -0.141541
0.600135 0.341821 -0.137711
0.699282 0.354074 -0.122722
0.78888 0.36684 -0.0815559
0.833333 0.375 0
0.166667 0.5 0
0.231425 0.502133 -0.0870946
0.306256 0.497932 -0.121775
0.397043 0.49961 -0.135678
0.498331 0.500741 -0.143569
0.59737 0.503017 -0.13872
0.696897 0.50652 -0.123684
0.787789 0.506501 -0.0820494
0.833333 0.5 0
0.166667 0.625 0
0.235011 0.647121 -0.0839077
0.316635 0.652998 -0.123327
0.406757 0.660693 -0.136515
0.501888 0.66476 -0.141292
0.597019 0.663857 -0.138692
0.694895 0.657967 -0.125723
0.787152 0.645322 -0.0839229
0.833333 0.625 0
0.166667 0.75 0
0.235471 0.785811 -0.0802885
0.319661 0.806985 -0.119147
0.411599 0.821671 -0.133153
0.503068 0.82737 -0.137465
0.596683 0.823038 -0.136532
0.693669 0.809683 -0.12537
0.787691 0.784809 -0.0849308
0.833333 0.75 0
0.166667 0.875 0
0.231699 0.923749 -0.0772574
0.31166 0.956257 -0.11188
0.404984 0.977227 -0.125862
0.499551 0.983014 -0.129362
0.596117 0.97592 -0.130116
0.696895 0.958767 -0.120793
0.791107 0.925595 -0.0832668
0.833333 0.875 0
0.166667 1 0
0.199588 1.07041 -0.0680138
0.280843 1.09436 -0.106019
0.387099 1.11831 -0.118307
0.495203 1.12565 -0.123751
0.604397 1.11591 -0.127694
0.715967 1.09573 -0.114728
0.816342 1.06228 -0.0754755
0.833333 1 0
0.166667 0 0.125
0.233698 -0.0726594 0.0589006
0.306925 -0.0920062 0.0396501
0.402469 -0.114007 0.0253093
0.508614 -0.121267 0.0266479
0.609281 -0.119977 0.031822
0.700415 -0.108098 0.0429196
0.777351 -0.0817449 0.0693281
0.833333 0 0.125
0.166667 0.125 0.125
0.268738 0.0800946 0.0708577
0.341825 0.0494383 0.0435152
0.42413 0.0278786 0.0228537
0.510736 0.0220864 0.0217936
0.593834 0.0253711 0.0255187
0.670412 0.0387086 0.0336647
0.737565 0.0727374 0.0657211
0.833333 0.125 0.125
0.166667 0.25 0.125
0.274059 0.228858 0.0714954
0.356581 0.205482 0.0350511
0.432775 0.184212 0.0105505
0.511374 0.177188 0.00744
0.587738 0.181935 0.0143872
0.661457 0.196395 0.0275539
0.734037 0.221389 0.0615397
0.833333 0.25 0.125
0.166667 0.375 0.125
0.274371 0.369554 0.0677151
0.356428 0.362535 0.0243788
0.43285 0.347815 0.000313595
0.509209 0.338068 -0.00199686
0.583007 0.340906 0.00843948
0.656721 0.352445 0.0251988
0.732469 0.364572 0.060529
0.833333 0.375 0.125
0.166667 0.5 0.125
0.272806 0.50939 0.0658676
0.356564 0.511919 0.0216945
0.434256 0.507228 -0.00188881
0.509244 0.500533 -0.00312502
0.581777 0.501051 0.00706576
0.655499 0.505056 0.0237572
0.732177 0.505191 0.0599517
0.833333 0.5 0.125
0.166667 0.625 0.125
0.271139 0.647869 0.0692052
0.355661 0.660892 0.0241757
0.433251 0.663957 0.0037676
0.508323 0.664031 0.00138243
0.58212 0.662585 0.00786502
0.655999 0.656917 0.0220785
0.732132 0.644849 0.0587184
0.833333 0.625 0.125
0.166667 0.75 0.125
0.269737 0.785099 0.0715845
0.35225 0.808957 0.0310119
0.429462 0.820821 0.013085
0.505869 0.825934 0.00847753
0.582708 0.822442 0.0109724
0.657503 0.809895 0.0223189
0.732866 0.785373 0.0581601
0.833333 0.75 0.125
0.166667 0.875 0.125
0.265913 0.928657 0.073576
0.340995 0.962084 0.0380345
0.419516 0.977772 0.0220564
0.502232 0.982981 0.0166157
0.585936 0.978378 0.0167431
0.664754 0.963046 0.0264106
0.737821 0.930512 0.0592252
0.833333 0.875 0.125
0.166667 1 0.125
0.227749 1.07994 0.077054
0.308214 1.10805 0.0377244
0.401621 1.12325 0.0236347
0.498957 1.12714 0.0173822
0.597252 1.12124 0.0162903
0.691613 1.10714 0.0275142
0.773099 1.07951 0.0625925
0.833333 1 0.125
0.166667 0 0.25
0.228168 -0.0818184 0.221898
0.318629 -0.115559 0.19278
0.409588 -0.125615 0.175851
0.502327 -0.127819 0.17573
0.595916 -0.128778 0.18129
0.689188 -0.118289 0.196125
0.774657 -0.086697 0.21939
0.833333 0 0.25
0.166667 0.125 0.25
0.26629 0.0651109 0.221272
0.342833 0.0313522 0.198846
0.42031 0.0202313 0.179641
0.501175 0.0178354 0.176933
0.582906 0.0182192 0.180908
0.659478 0.0302036 0.193073
0.734246 0.0671908 0.218401
0.833333 0.125 0.25
0.166667 0.25 0.25
0.270338 0.214899 0.21926
0.350911 0.192279 0.199653
0.426473 0.177116 0.175094
0.501143 0.172782 0.169979
0.576405 0.177064 0.175085
0.650802 0.190536 0.189002
0.730958 0.217142 0.215475
0.833333 0.25 0.25
0.166667 0.375 0.25
0.271764 0.359952 0.216991
0.352437 0.351084 0.194457
0.42694 0.338538 0.169865
0.498622 0.334318 0.164731
0.571761 0.338613 0.171714
0.647291 0.348089 0.186614
0.730324 0.361178 0.213726
0.833333 0.375 0.25
0.166667 0.5 0.25
0.272168 0.503573 0.215167
0.35462 0.504204 0.191744
0.429527 0.500291 0.168998
0.499754 0.499023 0.165175
0.571375 0.500519 0.171668
0.646483 0.502633 0.18553
0.729958 0.503063 0.212841
0.833333 0.5 0.25
0.166667 0.625 0.25
0.273394 0.644962 0.216426
0.35693 0.656773 0.19096
0.431388 0.662546 0.171802
0.501756 0.665716 0.167637
0.572586 0.664301 0.172434
0.646576 0.65726 0.18455
0.729623 0.644223 0.211879
0.833333 0.625 0.25
0.166667 0.75 0.25
0.274036 0.786236 0.217784
0.357267 0.811101 0.192903
0.431152 0.825294 0.176127
0.502556 0.831052 0.170532
0.574111 0.827428 0.173756
0.647264 0.813849 0.184509
0.729255 0.786618 0.211687
0.833333 0.75 0.25
0.166667 0.875 0.25
0.271104 0.931871 0.219842
0.349365 0.969493 0.195299
0.424826 0.986385 0.180124
0.50197 0.991503 0.173955
0.578987 0.987709 0.176229
0.654377 0.970868 0.186094
0.732709 0.932746 0.211155
0.833333 0.875 0.25
0.166667 1 0.25
0.230987 1.08117 0.219282
0.31577 1.11497 0.192218
0.408379 1.13158 0.177377
0.500985 1.13564 0.170923
0.593314 1.13102 0.173488
0.684621 1.11435 0.184129
0.770182 1.08098 0.209561
0.833333 1 0.25
0.166667 0 0.375
0.231355 -0.0855038 0.368792
0.323114 -0.121223 0.351913
0.412873 -0.132748 0.339747
0.501161 -0.135216 0.33411
0.590331 -0.133913 0.339819
0.683403 -0.12222 0.350426
0.773306 -0.0884727 0.361352
0.833333 0 0.375
0.166667 0.125 0.375
0.268834 0.0638905 0.366131
0.348929 0.027068 0.35088
0.425135 0.0143305 0.339351
0.50149 0.0104078 0.334152
0.577761 0.0121451 0.339981
0.653049 0.0249451 0.349315
0.731227 0.0630723 0.361814
0.833333 0.125 0.375
0.166667 0.25 0.375
0.271134 0.213119 0.363839
0.356254 0.187143 0.349487
0.430964 0.172206 0.335745
0.501065 0.168521 0.330561
0.570518 0.173242 0.337198
0.643563 0.186298 0.347189
0.72711 0.213455 0.359909
0.833333 0.25 0.375
0.166667 0.375 0.375
0.272301 0.358773 0.362184
0.358037 0.345887 0.345782
0.431198 0.335576 0.332106
0.498709 0.332562 0.327979
0.566726 0.336134 0.335218
0.640541 0.344861 0.345672
0.726302 0.358208 0.358335
0.833333 0.375 0.375
0.166667 0.5 0.375
0.272984 0.502514 0.361268
0.359591 0.501607 0.344876
0.432638 0.49949 0.332149
0.499583 0.497728 0.328841
0.566678 0.498878 0.335136
0.639813 0.500786 0.344875
0.725691 0.501376 0.357446
0.833333 0.5 0.375
0.166667 0.625 0.375
0.273921 0.644458 0.361327
0.360817 0.655976 0.345486
0.433965 0.662953 0.33484
0.50108 0.665737 0.331746
0.567712 0.664846 0.336813
0.64029 0.657099 0.34453
0.725724 0.643783 0.356619
0.833333 0.625 0.375
0.166667 0.75 0.375
0.274459 0.786808 0.361154
0.360214 0.813304 0.347152
0.433267 0.828333 0.337749
0.50167 0.834408 0.33465
0.569982 0.830822 0.338513
0.642577 0.81581 0.344246
0.726488 0.787598 0.3559
0.833333 0.75 0.375
0.166667 0.875 0.375
0.271435 0.934292 0.361045
0.351828 0.974788 0.348225
0.427136 0.992296 0.33975
0.501608 0.997728 0.337113
0.575871 0.993578 0.339505
0.650981 0.975583 0.343938
0.730572 0.935053 0.354209
0.833333 0.875 0.375
0.166667 1 0.375
0.229364 1.08364 0.358798
0.316828 1.1206 0.343793
0.41007 1.13759 0.33676
0.500629 1.14229 0.334605
0.591411 1.13792 0.336356
0.683587 1.11979 0.34069
0.770101 1.08326 0.350294
0.833333 1 0.375
0.166667 0 0.5
0.230983 -0.0859062 0.508821
0.322075 -0.122157 0.505487
0.41386 -0.135872 0.501422
0.501122 -0.140003 0.500359
0.589641 -0.138454 0.502786
0.683574 -0.125255 0.503706
0.773393 -0.0897648 0.50112
0.833333 0 0.5
0.166667 0.125 0.5
0.271084 0.0647223 0.505179
0.35124 0.0257848 0.503898
0.426924 0.0107426 0.502016
0.501227 0.00521061 0.501531
0.57599 0.00718179 0.503181
0.651684 0.0213283 0.50205
0.731003 0.0612463 0.5009
0.833333 0.125 0.5
0.166667 0.25 0.5
0.273787 0.214289 0.503465
0.358241 0.186964 0.504086
0.431831 0.171577 0.501866
0.501077 0.166287 0.500454
0.569909 0.170505 0.501958
0.643403 0.184203 0.501351
0.727645 0.212163 0.500223
0.833333 0.25 0.5
0.166667 0.375 0.5
0.2746 0.358975 0.502872
0.359633 0.345353 0.502542
0.432254 0.335459 0.500596
0.499632 0.332043 0.498813
0.567482 0.335237 0.500502
0.641531 0.343729 0.500467
0.727419 0.357076 0.499173
0.833333 0.375 0.5
0.166667 0.5 0.5
0.274607 0.501713 0.502759
0.360235 0.501186 0.501937
0.432882 0.500005 0.500557
0.500094 0.498698 0.498626
0.567362 0.499711 0.499879
0.641108 0.500671 0.499524
0.727243 0.500436 0.498207
0.833333 0.5 0.5
0.166667 0.625 0.5
0.274805 0.643496 0.502304
0.360867 0.656455 0.501709
0.433769 0.664557 0.501261
0.501047 0.667639 0.499686
0.567997 0.66649 0.500243
0.641242 0.65768 0.498751
0.727004 0.643419 0.497106
0.833333 0.625 0.5
0.166667 0.75 0.5
0.27449 0.78697 0.500748
0.359533 0.815106 0.501119
0.432441 0.831113 0.501303
0.500993 0.837439 0.500465
0.569699 0.833373 0.500381
0.642743 0.817477 0.498084
0.727189 0.788342 0.496156
0.833333 0.75 0.5
0.166667 0.875 0.5
0.270739 0.9355 0.499615
0.350349 0.977307 0.499966
[...]
POINT_DATA 4913
SCALARS scalars float 1
LOOKUP_TABLE default
0.166667 0.101164 0.149581 0.15603 0.167218 0.167952 0.15335 0.0949125 0.166667 0.166667 0.133445 0.13465 0.146936 0.15859 0.157299 0.145897 0.123943 0.166667 0.166667 0.137436 0.134353 0.141304 0.151128 0.150343 0.141069 0.120607 0.166667 0.166667 0.135139 0.129462 0.136258 0.1462 0.143818 0.134428 0.118889 0.166667 0.166667 0.137536 0.134157 0.137457 0.143581 0.141477 0.13476 0.119917 0.166667 0.166667 0.140115 0.142947 0.144634 0.146792 0.146725 0.141172 0.12318 0.166667 0.166667 0.141182 0.149318 0.155583 0.157773 0.157408 0.149843 0.12668 0.166667 0.166667 0.140463 0.151399 0.164896 0.168528 0.16718 0.156295 0.128574 0.166667 0.166667 0.123074 0.145239 0.167751 0.176427 0.173684 0.153246 0.114088 0.166667 0.166667 0.146505 0.137805 0.153917 0.156375 0.152721 0.144502 0.138986 0.166667 0.166667 0.160027 0.144157 0.149266 0.146144 0.1442 0.148737 0.158536 0.166667 0.166667 0.159776 0.146397 0.1441 0.138749 0.135117 0.142159 0.157215 0.166667 0.166667 0.160072 0.146993 0.140115 0.132578 0.1285 0.138455 0.156781 0.166667 0.166667 0.159472 0.148896 0.140229 0.128459 0.12561 0.138586 0.157025 0.166667 0.166667 0.158091 0.150393 0.140029 0.1299 0.130276 0.142996 0.158741 0.166667 0.166667 0.158221 0.15088 0.143202 0.139205 0.141558 0.150621 0.160999 0.166667 0.166667 0.159311 0.153058 0.152122 0.15301 0.154702 0.157286 0.161945 0.166667 0.166667 0.138734 0.150602 0.161787 0.166575 0.165184 0.156179 0.14353 0.166667 0.166667 0.134639 0.146075 0.149911 0.147848 0.148831 0.143503 0.136096 0.166667 0.166667 0.156124 0.141438 0.134089 0.129709 0.133969 0.142903 0.15541 0.166667 0.166667 0.152644 0.126686 0.116501 0.111208 0.115297 0.130756 0.151723 0.166667 0.166667 0.151181 0.118955 0.10222 0.0944866 0.101426 0.123657 0.149793 0.166667 0.166667 0.151276 0.11982 0.0976449 0.0848309 0.0949303 0.12198 0.149758 0.166667 0.166667 0.153448 0.126211 0.103461 0.0918943 0.10153 0.126574 0.151516 0.166667 0.166667 0.156724 0.136013 0.119497 0.113539 0.119992 0.137552 0.155082 0.166667 0.166667 0.159657 0.14763 0.140613 0.139139 0.142347 0.149728 0.158399 0.166667 0.166667 0.136989 0.144504 0.153955 0.157008 0.154996 0.147276 0.138491 0.166667 0.166667 0.136605 0.143436 0.142475 0.141268 0.142732 0.141339 0.135482 0.166667 0.166667 0.156529 0.141278 0.126618 0.121664 0.127256 0.141669 0.157098 0.166667 0.166667 0.151129 0.126063 0.103561 0.0928161 0.101435 0.127123 0.153084 0.166667 0.166667 0.148746 0.115643 0.0809464 0.0633536 0.0805544 0.11726 0.150568 0.166667 0.166667 0.148641 0.113667 0.0718231 0.0462168 0.0706528 0.114234 0.150343 0.166667 0.166667 0.150808 0.118789 0.0808091 0.0594274 0.0795481 0.118301 0.151572 0.166667 0.166667 0.154546 0.130116 0.104492 0.0935713 0.104358 0.129678 0.154383 0.166667 0.166667 0.158598 0.145063 0.133114 0.128453 0.13317 0.144522 0.157791 0.166667 0.166667 0.134724 0.141369 0.147046 0.147917 0.147122 0.141202 0.136187 0.166667 0.166667 0.136711 0.141941 0.141327 0.140008 0.142925 0.141827 0.135584 0.166667 0.166667 0.158116 0.141804 0.125519 0.119805 0.127645 0.142892 0.157482 0.166667 0.166667 0.153051 0.125325 0.0968677 0.0837211 0.0967381 0.125276 0.152135 0.166667 0.166667 0.150483 0.113599 0.0695833 0.0429754 0.0699258 0.112888 0.148668 0.166667 0.166667 0.149642 0.110258 0.057885 0.00189559 0.0576391 0.108895 0.147768 0.166667 0.166667 0.15096 0.115256 0.0708535 0.042653 0.0705036 0.113568 0.149166 0.166667 0.166667 0.153995 0.127427 0.0994002 0.0874462 0.100047 0.126732 0.152751 0.166667 0.166667 0.157798 0.143306 0.130803 0.12652 0.131833 0.14385 0.157333 0.166667 0.166667 0.133552 0.139328 0.14469 0.14641 0.146221 0.140931 0.135875 0.166667 0.166667 0.136234 0.142385 0.146365 0.148139 0.149551 0.144986 0.136449 0.166667 0.166667 0.158341 0.144285 0.132 0.129 0.134935 0.146455 0.158824 0.166667 0.166667 0.153997 0.129821 0.105305 0.0951693 0.105712 0.130044 0.154208 0.166667 0.166667 0.15159 0.11932 0.0819137 0.0614111 0.0809369 0.118359 0.15122 0.166667 0.166667 0.150709 0.115649 0.0722531 0.0444457 0.0708481 0.114308 0.150113 0.166667 0.166667 0.151369 0.118973 0.0816399 0.0614242 0.0813843 0.118479 0.151427 0.166667 0.166667 0.153727 0.129042 0.10496 0.0959759 0.106933 0.130455 0.154345 0.166667 0.166667 0.157366 0.143491 0.132925 0.130589 0.13557 0.146084 0.158328 0.166667 0.166667 0.133474 0.139692 0.146815 0.150418 0.150256 0.143884 0.137923 0.166667 0.166667 0.136875 0.146628 0.156156 0.160829 0.158412 0.148315 0.137866 0.166667 0.166667 0.15857 0.148743 0.142984 0.142701 0.144493 0.149883 0.159664 0.166667 0.166667 0.15584 0.137978 0.122202 0.117715 0.123122 0.138227 0.156874 0.166667 0.166667 0.154338 0.130832 0.107086 0.0981556 0.107915 0.130782 0.155048 0.166667 0.166667 0.153692 0.128496 0.101445 0.0904181 0.102414 0.128402 0.154296 0.166667 0.166667 0.153746 0.12995 0.1058 0.0969871 0.107275 0.130523 0.155028 0.166667 0.166667 0.15511 0.13595 0.119318 0.115075 0.121676 0.137609 0.156584 0.166667 0.166667 0.15752 0.145953 0.138601 0.137953 0.141006 0.148105 0.158885 0.166667 0.166667 0.134938 0.143306 0.152249 0.156417 0.154886 0.146785 0.140062 0.166667 0.166667 0.139681 0.152655 0.16473 0.169466 0.164445 0.150645 0.138547 0.166667 0.166667 0.159091 0.152678 0.152995 0.15471 0.153305 0.152205 0.158543 0.166667 0.166667 0.158687 0.147997 0.141905 0.141252 0.142609 0.147696 0.158756 0.166667 0.166667 0.158174 0.144979 0.134454 0.131892 0.13613 0.145764 0.159228 0.166667 0.166667 0.158233 0.144491 0.131948 0.128623 0.134156 0.145463 0.159345 0.166667 0.166667 0.15836 0.145135 0.133691 0.130743 0.135423 0.145627 0.159378 0.166667 0.166667 0.158692 0.1473 0.138987 0.137246 0.140337 0.147003 0.159057 0.166667 0.166667 0.159142 0.151282 0.147188 0.147652 0.149153 0.149801 0.157876 0.166667 0.166667 0.139301 0.147045 0.156518 0.16201 0.159975 0.147211 0.13918 0.166667 0.166667 0.110654 0.147103 0.170008 0.175999 0.166899 0.14299 0.125363 0.166667 0.166667 0.126058 0.149277 0.163153 0.167341 0.161998 0.147845 0.140329 0.166667 0.166667 0.125993 0.145312 0.155865 0.159299 0.155215 0.145162 0.140125 0.166667 0.166667 0.123965 0.141927 0.149774 0.152143 0.150503 0.144143 0.140189 0.166667 0.166667 0.122812 0.141018 0.14775 0.149734 0.149191 0.1448 0.140533 0.166667 0.166667 0.123316 0.142307 0.149458 0.151691 0.150693 0.145521 0.140641 0.166667 0.166667 0.125652 0.145686 0.153774 0.156288 0.15422 0.146086 0.139981 0.166667 0.166667 0.127925 0.147401 0.158529 0.162194 0.158863 0.146989 0.140132 0.166667 0.166667 0.100686 0.148209 0.165891 0.170605 0.16417 0.143595 0.0892466 0.166667 0.166667 0.141183 0.11946 0.166667 0.166667 0.135313 0.124924 0.144518 0.156205 0.166667 0.157181 0.166667 0.13829 0.147131 0.14851 0.158918 0.149098 0.164155 0.154592 0.142422 0.120535 0.1318 0.142602 0.129119 0.141378 0.143288 0.144965 0.144333 0.138224 0.145255 0.143939 0.151185 0.144286 0.146417 0.149753 0.145264 0.153665 0.138528 0.146014 0.143661 0.152091 0.150607 0.14442 0.145677 0.148083 0.14515 0.151665 0.158572 0.160137 0.156648 0.163246 0.152497 0.155309 0.152646 0.158534 0.155949 0.154668 0.152265 0.152071 0.147457 0.1516 0.162418 0.163789 0.160516 0.162817 0.156406 0.157217 0.152975 0.158601 0.155629 0.154527 0.151436 0.151882 0.145231 0.149785 0.15636 0.15607 0.15529 0.151465 0.149804 0.153625 0.150288 0.149988 0.150796 0.148949 0.149341 0.150183 0.145945 0.148464 0.13755 0.12488 0.13355 0.117203 0.134889 0.146699 0.148224 0.127611 0.145799 0.140436 0.148615 0.149654 0.151706 0.152704 0.144194 0.0940626 0.128776 0.166667 0.129989 0.157131 0.162129 0.166667 0.166667 0.142503 0.162006 0.166667 0.161873 0.166667 0.166667 0.166667 0.136549 0.129723 0.146573 0.156132 0.166667 0.158021 0.166667 0.149248 0.160649 0.14839 0.16421 0.15572 0.127725 0.134709 0.129198 0.141405 0.141283 0.139843 0.148104 0.140266 0.152822 0.143374 0.136989 0.145509 0.135723 0.140018 0.140046 0.14569 0.142667 0.14444 0.142698 0.14497 0.148767 0.154127 0.145097 0.147987 0.147498 0.148699 0.143144 0.146042 0.139552 0.141756 0.151904 0.153469 0.149436 0.148484 0.14702 0.147907 0.140466 0.144873 0.135514 0.139638 0.146342 0.143727 0.143529 0.146262 0.144942 0.146664 0.141638 0.14495 0.137571 0.145118 0.131907 0.120729 0.130173 0.146026 0.1445 0.148889 0.149898 0.147591 0.148599 0.156681 0.12691 0.166667 0.128187 0.159789 0.161722 0.166667 0.161754 0.166667 0.161822 0.166667 0.166667 0.166667 0.136797 0.129123 0.146237 0.155588 0.166667 0.157914 0.166667 0.146906 0.160791 0.14695 0.164165 0.155768 0.123397 0.131241 0.124443 0.137395 0.139085 0.137098 0.148412 0.138476 0.152418 0.141662 0.130381 0.140071 0.130446 0.135816 0.137461 0.140909 0.137427 0.141418 0.140076 0.137892 0.141819 0.146878 0.139947 0.142419 0.144137 0.142672 0.134656 0.142119 0.133914 0.133765 0.144041 0.145102 0.143532 0.142015 0.141996 0.140855 0.13141 0.139744 0.128546 0.131313 0.139438 0.136521 0.137242 0.14071 0.13973 0.141541 0.134668 0.140334 0.132598 0.139632 0.127026 0.118435 0.12589 0.143335 0.142096 0.147947 0.147322 0.146801 0.146986 0.15564 0.12604 0.166667 0.127999 0.159809 0.162021 0.166667 0.161421 0.166667 0.161915 0.166667 0.166667 0.166667 0.137517 0.129929 0.148459 0.155441 0.166667 0.158094 0.166667 0.147712 0.161041 0.148863 0.163888 0.155515 0.121338 0.130648 0.128855 0.138078 0.142026 0.139354 0.147635 0.141688 0.15261 0.142511 0.129702 0.138217 0.132507 0.136454 0.139369 0.140215 0.136146 0.141245 0.141012 0.135404 0.138997 0.142877 0.139805 0.140407 0.142613 0.139486 0.130568 0.139838 0.131727 0.128192 0.141117 0.141523 0.141697 0.138388 0.139052 0.137559 0.125925 0.137638 0.124914 0.126569 0.135938 0.133506 0.136826 0.138572 0.13912 0.140117 0.131768 0.140546 0.131406 0.138025 0.125298 0.118319 0.126911 0.142519 0.142848 0.147793 0.146759 0.147456 0.147275 0.155478 0.126311 0.166667 0.128708 0.159719 0.162131 0.166667 0.161314 0.166667 0.162091 0.166667 0.166667 0.166667 0.142572 0.13242 0.150556 0.156079 0.166667 0.158522 0.166667 0.149825 0.161342 0.15144 0.16334 0.15592 0.126412 0.134052 0.135523 0.142352 0.146315 0.144032 0.149018 0.146772 0.152931 0.144841 0.133296 0.140698 0.140454 0.140285 0.144701 0.141991 0.137913 0.144423 0.142575 0.135494 0.14201 0.144478 0.145752 0.141285 0.144219 0.139257 0.130141 0.141569 0.133229 0.126804 0.142698 0.14302 0.14573 0.138943 0.14171 0.138909 0.125476 0.141612 0.128397 0.126985 0.138912 0.137013 0.142978 0.140524 0.143812 0.142915 0.13328 0.145599 0.135981 0.13996 0.1284 0.120128 0.131964 0.144674 0.146494 0.149085 0.1483 0.149567 0.150261 0.156274 0.126885 0.166667 0.130223 0.160004 0.162643 0.166667 0.161521 0.166667 0.162793 0.166667 0.166667 0.166667 0.142868 0.13597 0.151294 0.156583 0.166667 0.158392 0.166667 0.151242 0.161217 0.152784 0.16317 0.156603 0.132616 0.141708 0.140105 0.145866 0.149474 0.14905 0.150862 0.151628 0.153328 0.147226 0.142619 0.149554 0.149908 0.146819 0.151292 0.147313 0.141904 0.150789 0.145896 0.138909 0.150169 0.152193 0.156085 0.146562 0.151177 0.145313 0.135339 0.150024 0.140635 0.133155 0.150552 0.15134 0.15608 0.14542 0.150523 0.146203 0.133267 0.151218 0.139592 0.135003 0.146967 0.144365 0.152854 0.147488 0.152614 0.149153 0.140192 0.152908 0.145671 0.14543 0.133295 0.122911 0.138358 0.148656 0.151368 0.1511 0.151835 0.152012 0.154992 0.157863 0.127772 0.166667 0.131571 0.160569 0.163258 0.166667 0.162017 0.166667 0.16359 0.166667 0.166667 0.166667 0.142773 0.13803 0.151063 0.156747 0.166667 0.158197 0.166667 0.151422 0.161642 0.154122 0.163647 0.157701 0.137088 0.147589 0.141426 0.147858 0.150373 0.152283 0.152474 0.154415 0.153861 0.149883 0.150754 0.159227 0.156299 0.152733 0.156423 0.154468 0.147488 0.158562 0.15176 0.146389 0.160674 0.162896 0.16599 0.155129 0.160301 0.155088 0.146057 0.160786 0.152631 0.145784 0.162002 0.162268 0.166912 0.155756 0.161439 0.156576 0.146765 0.161505 0.153849 0.147826 0.157157 0.151996 0.161374 0.156715 0.160881 0.155921 0.150799 0.158504 0.155914 0.152852 0.138781 0.125584 0.142567 0.152814 0.154193 0.152904 0.155973 0.153116 0.158287 0.159367 0.128191 0.166667 0.131767 0.161123 0.163144 0.166667 0.162355 0.166667 0.163883 0.166667 0.166667 0.166667 0.141235 0.131692 0.134775 0.153942 0.166667 0.137668 0.166667 0.147215 0.161073 0.132354 0.145806 0.15224 0.131494 0.147042 0.128918 0.143555 0.136501 0.15275 0.147974 0.148684 0.140895 0.151522 0.154468 0.165744 0.155376 0.156611 0.158093 0.161451 0.153542 0.164634 0.154706 0.157035 0.169304 0.172438 0.172045 0.164741 0.169615 0.1659 0.158991 0.171299 0.163786 0.160304 0.17193 0.170723 0.174716 0.166834 0.171547 0.166151 0.161139 0.169849 0.16567 0.160797 0.163745 0.155446 0.162914 0.163421 0.164191 0.158235 0.160172 0.15576 0.160016 0.158538 0.139254 0.122846 0.132846 0.151869 0.143718 0.148522 0.155684 0.135994 0.146468 0.155998 0.123598 0.166667 0.117767 0.160546 0.143878 0.166667 0.158611 0.166667 0.147661 0.166667 0.166667 0.140675 0.166667 0.160735 0.166667 0.161323 0.166667 0.135173 0.149409 0.143445 0.157813 0.155149 0.162226 0.15123 0.131528 0.141629 0.146354 0.138928 0.143451 0.135954 0.146155 0.142805 0.146645 0.146779 0.146443 0.14473 0.14161 0.151927 0.148131 0.145989 0.143805 0.141888 0.136886 0.143789 0.153222 0.146929 0.139967 0.1517 0.145567 0.148307 0.141517 0.137528 0.132411 0.14024 0.151882 0.145577 0.137587 0.149878 0.145717 0.147476 0.141234 0.138542 0.131923 0.143073 0.147867 0.145877 0.141069 0.14283 0.147114 0.144757 0.143476 0.145813 0.137141 0.145595 0.137979 0.147265 0.150088 0.138505 0.1512 0.13685 0.145378 0.156817 0.147212 0.151126 0.142357 0.158624 0.161634 0.166667 0.166667 0.14295 0.161429 0.166667 0.161374 0.166667 0.166667 0.161238 0.166667 0.160898 0.166667 0.15566 0.159567 0.15382 0.161305 0.152868 0.145174 0.145289 0.139078 0.142205 0.135197 0.139696 0.134579 0.134383 0.130588 0.13537 0.128408 0.129183 0.121124 0.125873 0.132023 0.126851 0.130905 0.12322 0.123919 0.113915 0.121029 0.129824 0.123638 0.131481 0.122315 0.124892 0.112493 0.124462 0.134265 0.129939 0.139998 0.129033 0.136753 0.121364 0.136613 0.147019 0.145313 0.155705 0.143875 0.154418 0.140677 0.153695 0.161734 0.161182 0.166667 0.161238 0.166667 0.160483 0.166667 0.166667 0.160936 0.166667 0.161063 0.166667 0.154524 0.159337 0.152871 0.161263 0.150944 0.142504 0.1437 0.13342 0.136646 0.13215 0.135902 0.123322 0.125028 0.124498 0.12425 0.114659 0.120706 0.110371 0.109192 0.11942 0.116891 0.118025 0.105507 0.113248 0.098181 0.102825 0.116605 0.112631 0.119027 0.104131 0.115171 0.096994 0.107647 0.124497 0.122165 0.132839 0.115748 0.131379 0.111443 0.126863 0.143312 0.142502 0.154302 0.138649 0.153361 0.136928 0.150966 0.161301 0.160922 0.166667 0.16034 0.166667 0.160088 0.166667 0.166667 0.160491 0.166667 0.160696 0.166667 0.153493 0.159326 0.152826 0.161398 0.14996 0.141648 0.144187 0.132338 0.134598 0.133216 0.136687 0.119796 0.122266 0.124692 0.118718 0.108552 0.118102 0.10915 0.0993807 0.111877 0.112367 0.109287 0.0937095 0.107262 0.0910265 0.0895987 0.108298 0.106991 0.11217 0.0923443 0.111117 0.0888401 0.0977466 0.120011 0.119872 0.130207 0.109147 0.130644 0.107775 0.122596 0.141971 0.142356 0.153652 0.136417 0.153475 0.136343 0.14989 0.160942 0.16098 0.166667 0.160029 0.166667 0.160181 0.166667 0.166667 0.160324 0.166667 0.160345 0.166667 0.153768 0.159683 0.15356 0.162163 0.15111 0.143122 0.146017 0.13442 0.137091 0.136549 0.140693 0.123086 0.12404 0.128438 0.118508 0.111115 0.12102 0.115159 0.099946 0.111506 0.115501 0.107798 0.0931946 0.111297 0.0971321 0.087904 0.107788 0.111828 0.112118 0.0913129 0.116057 0.0953259 0.0974015 0.120957 0.124403 0.13164 0.109782 0.134626 0.113062 0.123668 0.143098 0.144986 0.154301 0.137399 0.154926 0.139407 0.150421 0.161054 0.161378 0.166667 0.160139 0.166667 0.160914 0.166667 0.166667 0.16047 0.166667 0.160547 0.166667 0.154636 0.160446 0.154575 0.16303 0.153605 0.145406 0.14852 0.138473 0.141932 0.141782 0.14662 0.130458 0.130096 0.135807 0.124578 0.120204 0.130774 0.127449 0.110801 0.119914 0.127743 0.117473 0.10586 0.12617 0.115699 0.102368 0.118376 0.12717 0.121783 0.104987 0.130352 0.11541 0.109864 0.128935 0.135933 0.137519 0.119225 0.143257 0.127382 0.130613 0.146651 0.150282 0.156025 0.141729 0.15751 0.146065 0.152531 0.161609 0.162151 0.166667 0.160854 0.166667 0.162062 0.166667 0.166667 0.160713 0.166667 0.161085 0.166667 0.155739 0.161626 0.156845 0.163946 0.156702 0.148574 0.151325 0.144565 0.148169 0.149132 0.152594 0.140873 0.139872 0.146064 0.137477 0.134553 0.14553 0.143171 0.129832 0.136033 0.145012 0.135483 0.127749 0.145446 0.139148 0.126782 0.136727 0.146175 0.138419 0.12822 0.147627 0.139638 0.131328 0.142411 0.149292 0.146936 0.13608 0.153195 0.144563 0.142558 0.152026 0.15541 0.158628 0.148594 0.161623 0.15297 0.155481 0.162664 0.163061 0.166667 0.161585 0.166667 0.163093 0.166667 0.166667 0.157501 0.166667 0.142104 0.166667 0.150686 0.161676 0.135546 0.145653 0.152434 0.146623 0.137137 0.150149 0.146943 0.144925 0.137962 0.147574 0.150349 0.151615 0.152428 0.14744 0.156879 0.148161 0.14874 0.153537 0.160005 0.154445 0.148993 0.161523 0.154489 0.149725 0.155179 0.16154 0.155113 0.150268 0.159189 0.155168 0.151033 0.154637 0.15596 0.153739 0.150991 0.149739 0.150022 0.151474 0.152331 0.143476 0.154988 0.149885 0.142708 0.139726 0.152421 0.161571 0.146107 0.166667 0.158062 0.166667 0.146427 0.166667 0.166667 0.139474 0.166667 0.16018 0.166667 0.160621 0.166667 0.134753 0.149985 0.145353 0.158777 0.15457 0.16282 0.151577 0.13457 0.143347 0.145563 0.137728 0.143289 0.135722 0.146007 0.140052 0.148035 0.144643 0.142789 0.140281 0.134134 0.143744 0.139002 0.141301 0.139568 0.130627 0.132973 0.136619 0.145051 0.138034 0.128059 0.144708 0.136983 0.140778 0.134384 0.126996 0.123591 0.133576 0.145685 0.138137 0.127919 0.144931 0.139902 0.140905 0.134697 0.130457 0.123539 0.137427 0.143645 0.141844 0.134644 0.140548 0.14505 0.140902 0.140437 0.141916 0.133361 0.143956 0.13536 0.145641 0.147766 0.137661 0.150055 0.135842 0.145418 0.155954 0.148181 0.151797 0.142449 0.158596 0.161659 0.166667 0.166667 0.142967 0.161973 0.166667 0.162468 0.166667 0.166667 0.160152 0.166667 0.159128 0.166667 0.152862 0.159873 0.149358 0.161197 0.15228 0.141107 0.13617 0.132526 0.141835 0.124998 0.138838 0.132329 0.123924 0.115751 0.119438 0.12197 0.108866 0.113633 0.114892 0.115484 0.104678 0.114519 0.110131 0.102112 0.095909 0.108007 0.114955 0.10345 0.118817 0.109768 0.107583 0.0946937 0.114391 0.124599 0.116376 0.133827 0.122688 0.127936 0.113119 0.133476 0.143364 0.13997 0.153552 0.143591 0.151657 0.140462 0.154575 0.161689 0.160829 0.166667 0.162002 0.166667 0.161588 0.166667 0.166667 0.159157 0.166667 0.158724 0.166667 0.149049 0.159058 0.146835 0.160897 0.14866 0.133028 0.130473 0.119645 0.133466 0.115284 0.132986 0.11829 0.106529 0.101767 0.098469 0.102812 0.0902865 0.0973761 0.0901217 0.0913205 0.082744 0.0894113 0.08059 0.079346 0.0679671 0.0772079 0.0906016 0.0819 0.0971244 0.0802011 0.0896393 0.0679704 0.089535 0.10832 0.103182 0.122352 0.104037 0.118894 0.0983717 0.120615 0.13729 0.135017 0.150882 0.136612 0.14956 0.135198 0.150992 0.160989 0.160361 0.166667 0.160883 0.166667 0.161166 0.166667 0.166667 0.158594 0.166667 0.158689 0.166667 0.147264 0.158754 0.146732 0.160988 0.147059 0.129751 0.130294 0.114188 0.129774 0.113999 0.132319 0.11153 0.097494 0.098209 0.0850837 0.0912596 0.0832017 0.092456 0.0727081 0.0740927 0.0719875 0.0707955 0.0572055 0.0671147 0.0538116 0.0518065 0.0738684 0.0710084 0.0838492 0.058034 0.0817167 0.0533046 0.0733803 0.0996606 0.0983244 0.11684 0.0933528 0.116386 0.0924583 0.113975 0.134442 0.133903 0.149547 0.133013 0.149208 0.133908 0.149289 0.160513 0.160331 0.166667 0.16045 0.166667 0.161298 0.166667 0.166667 0.158861 0.166667 0.159414 0.166667 0.148387 0.159097 0.148819 0.161619 0.148049 0.13191 0.13448 0.11658 0.131389 0.11947 0.135887 0.113345 0.0996023 0.104837 0.0855502 0.0926792 0.0908142 0.0994484 0.0727967 0.0736894 0.0806987 0.0687267 0.0560611 0.0761568 0.0660232 0.0487245 0.0726154 0.0794804 0.0831394 0.0558158 