# vtk DataFile Version 5.1
vtk output
ASCII

DATASET UNSTRUCTURED_GRID
POINTS 4913 float
0.166667 0 0
0.163177 -0.0258295 -0.0287811
0.197424 -0.0518606 -0.0526195
0.241069 -0.0678975 -0.0688035
0.288206 -0.0797199 -0.0816959
0.337652 -0.0892636 -0.0925116
0.389695 -0.096364 -0.100489
0.443348 -0.10081 -0.105004
0.497407 -0.102865 -0.106591
0.551485 -0.102618 -0.105773
0.605517 -0.0995573 -0.102074
0.658881 -0.0931155 -0.0950228
0.710509 -0.0834588 -0.0848423
0.759866 -0.0715338 -0.0722812
0.806585 -0.057005 -0.0564118
0.847488 -0.0376386 -0.0336374
0.833333 0 0
0.166667 0.0625 0
0.188645 0.0356198 -0.0394433
0.222377 0.0142516 -0.0609992
0.261662 3.47575e-05 -0.0744757
0.304524 -0.0114116 -0.0853362
0.350254 -0.0212058 -0.0949329
0.398669 -0.028485 -0.102186
0.448772 -0.0328871 -0.106374
0.499498 -0.0348472 -0.107943
0.550333 -0.0346182 -0.107305
0.600932 -0.03169 -0.10392
0.650577 -0.0253948 -0.0973407
0.698322 -0.0158499 -0.0878842
0.743615 -0.00412917 -0.076454
0.785285 0.00992897 -0.0623906
0.817805 0.0305022 -0.0427705
0.833333 0.0625 0
0.166667 0.125 0
0.196023 0.104021 -0.040476
0.233126 0.0855676 -0.0635597
0.27289 0.0718401 -0.0775739
0.314949 0.0602143 -0.0883742
0.359142 0.0502017 -0.0977239
0.405471 0.0428459 -0.104752
0.453198 0.0385112 -0.108815
0.501431 0.0367016 -0.110297
0.549718 0.0370313 -0.109584
0.597797 0.0399541 -0.106224
0.645124 0.0462162 -0.0997821
0.690903 0.055819 -0.0904511
0.734596 0.0678789 -0.0790448
0.775348 0.082937 -0.0650587
0.811432 0.101827 -0.0439858
0.833333 0.125 0
0.166667 0.1875 0
0.19848 0.170812 -0.039422
0.23769 0.156043 -0.0638474
0.27854 0.143964 -0.0791379
0.320832 0.133189 -0.0906172
0.364548 0.123729 -0.10021
0.409789 0.116757 -0.107278
0.45603 0.112759 -0.111332
0.502614 0.111229 -0.112774
0.549201 0.111635 -0.111967
0.595666 0.114385 -0.10861
0.641668 0.120297 -0.102318
0.686586 0.129438 -0.0931099
0.730062 0.140885 -0.0815665
0.771798 0.154207 -0.0666365
0.810014 0.169599 -0.0439633
0.833333 0.1875 0
0.166667 0.25 0
0.199331 0.236639 -0.0386314
0.239507 0.225397 -0.0637635
0.281068 0.215635 -0.0801034
0.323706 0.206522 -0.0922108
0.367315 0.198307 -0.10198
0.411983 0.192201 -0.109047
0.457384 0.188775 -0.113161
0.503048 0.187572 -0.114663
0.548701 0.187985 -0.113865
0.59433 0.190402 -0.11062
0.639763 0.195666 -0.104585
0.684556 0.203767 -0.0956192
0.728515 0.213528 -0.0840238
0.771224 0.224214 -0.0684206
0.810173 0.23616 -0.0445162
0.833333 0.25 0
0.166667 0.3125 0
0.199584 0.30217 -0.0383104
0.240097 0.294166 -0.0638439
0.281985 0.286908 -0.0808971
0.324863 0.279789 -0.0933484
0.368482 0.273185 -0.103128
0.412892 0.268229 -0.110199
0.457896 0.265502 -0.11443
0.50312 0.264631 -0.116025
0.548369 0.265007 -0.115294
0.593689 0.267008 -0.112153
0.63894 0.271438 -0.10624
0.683794 0.278132 -0.0974079
0.728175 0.285823 -0.0858959
0.771483 0.293799 -0.0700308
0.810682 0.302455 -0.045313
0.833333 0.3125 0
0.166667 0.375 0
0.199668 0.367703 -0.0382718
0.240252 0.362713 -0.0640159
0.282283 0.357881 -0.0814353
0.325338 0.352791 -0.0940004
0.369022 0.347963 -0.103795
0.413348 0.344352 -0.11098
0.458172 0.342416 -0.115336
0.503198 0.341835 -0.116982
0.548319 0.342119 -0.116279
0.593524 0.343657 -0.113046
0.638559 0.347098 -0.106851
0.683205 0.352137 -0.0977739
0.72762 0.357633 -0.0862704
0.771214 0.362994 -0.0704575
0.81069 0.368542 -0.0455479
0.833333 0.375 0
0.166667 0.4375 0
0.199844 0.433267 -0.0382802
0.240513 0.431062 -0.0640107
0.282691 0.428474 -0.0814837
0.325882 0.42542 -0.094022
0.369577 0.422528 -0.103909
0.413797 0.420447 -0.111307
0.458437 0.419373 -0.115806
0.503278 0.419051 -0.117532
0.548268 0.419228 -0.11684
0.593291 0.420276 -0.113376
0.638005 0.422565 -0.10669
0.682307 0.425683 -0.0971621
0.726597 0.428794 -0.0855476
0.770367 0.431567 -0.0698993
0.810212 0.434214 -0.0452033
0.833333 0.4375 0
0.166667 0.5 0
0.20014 0.498693 -0.0381401
0.240975 0.499068 -0.0636871
0.283294 0.49867 -0.0810259
0.326505 0.497797 -0.0935088
0.370078 0.497051 -0.103592
0.414101 0.496652 -0.111264
0.458508 0.496506 -0.115983
0.503133 0.496482 -0.117923
0.547926 0.496577 -0.117294
0.592729 0.497052 -0.113599
0.637215 0.497944 -0.106487
0.681368 0.498848 -0.0965778
0.725667 0.499374 -0.08482
0.769622 0.499527 -0.0692694
0.809754 0.499454 -0.0447915
0.833333 0.5 0
0.166667 0.5625 0
0.200423 0.563934 -0.0378589
0.241353 0.566863 -0.063143
0.283654 0.568805 -0.080302
0.326697 0.570356 -0.0928211
0.370035 0.571904 -0.103159
0.413845 0.573197 -0.11104
0.458092 0.573938 -0.11597
0.502636 0.574192 -0.118202
0.547379 0.574205 -0.117739
0.592153 0.574033 -0.113999
0.636711 0.573302 -0.106696
0.68103 0.571747 -0.0965477
0.725502 0.569578 -0.0846384
0.769558 0.567127 -0.0690511
0.809707 0.564456 -0.0446219
0.833333 0.5625 0
0.166667 0.625 0
0.200647 0.629196 -0.0375418
0.241522 0.634838 -0.0625079
0.28361 0.639366 -0.079506
0.326331 0.6435 -0.0921439
0.369391 0.64728 -0.102656
0.413035 0.650072 -0.110542
0.457231 0.651553 -0.115565
0.501851 0.652032 -0.118094
0.546752 0.651887 -0.117894
0.591773 0.650944 -0.114345
0.636742 0.648499 -0.107179
0.681525 0.644474 -0.0970257
0.726264 0.639698 -0.0850086
0.770276 0.634739 -0.0692956
0.810137 0.629513 -0.044753
0.833333 0.625 0
0.166667 0.6875 0
0.20085 0.69471 -0.0372094
0.241561 0.70331 -0.0617533
0.283315 0.710597 -0.0785154
0.325665 0.717253 -0.0911964
0.368488 0.723015 -0.101727
0.41206 0.727043 -0.109499
0.456278 0.729152 -0.114583
0.501019 0.729831 -0.117386
0.546148 0.729378 -0.11742
0.591515 0.727441 -0.114088
0.636975 0.723298 -0.107242
0.682241 0.717119 -0.0973352
0.727185 0.710074 -0.0853661
0.771062 0.702779 -0.0696149
0.810582 0.69494 -0.0450048
0.833333 0.6875 0
0.166667 0.75 0
0.200996 0.76059 -0.0367448
0.241409 0.772387 -0.0606405
0.282714 0.782429 -0.0769379
0.32466 0.791372 -0.0894893
0.367316 0.79883 -0.100012
0.410959 0.803942 -0.107847
0.455376 0.806602 -0.113163
0.500372 0.807342 -0.116203
0.545805 0.806364 -0.116305
0.591505 0.80328 -0.113022
0.637285 0.797598 -0.106414
0.682749 0.789712 -0.0967799
0.727632 0.78079 -0.0849151
0.771272 0.771304 -0.0692812
0.810604 0.760707 -0.044891
0.833333 0.75 0
0.166667 0.8125 0
0.201021 0.826953 -0.0360245
0.240918 0.842154 -0.058973
0.281548 0.854791 -0.0744651
0.322947 0.865616 -0.0866243
0.365415 0.874426 -0.0971241
0.409257 0.880485 -0.105239
0.454155 0.883583 -0.111013
0.49977 0.884154 -0.114399
0.545833 0.882509 -0.114652
0.59206 0.878357 -0.111489
0.638187 0.871383 -0.105117
0.68376 0.862108 -0.0957075
0.728475 0.851529 -0.0839287
0.771783 0.839922 -0.0684838
0.810796 0.826525 -0.0444903
0.833333 0.8125 0
0.166667 0.875 0
0.200702 0.894001 -0.0348869
0.239581 0.912921 -0.0566787
0.279051 0.927848 -0.0709564
0.319702 0.939872 -0.0824279
0.362068 0.94937 -0.0928363
0.406359 0.955965 -0.101286
0.452135 0.959263 -0.10762
0.498894 0.959554 -0.111599
0.546161 0.957351 -0.112444
0.593481 0.95242 -0.109863
0.640444 0.944436 -0.103999
0.686506 0.933996 -0.094944
0.731281 0.922003 -0.0833718
0.774198 0.908551 -0.0681862
0.812279 0.892605 -0.0444529
0.833333 0.875 0
0.166667 0.9375 0
0.198967 0.962252 -0.0328789
0.235286 0.985294 -0.0531286
0.273107 1.00167 -0.0659779
0.313482 1.01374 -0.0770245
0.35647 1.023 -0.0876094
0.401993 1.02946 -0.0965981
0.449421 1.03261 -0.103669
0.498051 1.03262 -0.108486
0.547258 1.03009 -0.110246
0.596462 1.02471 -0.108569
0.645072 1.01607 -0.103463
0.692306 1.00489 -0.0949389
0.737574 0.992087 -0.0837561
0.78012 0.977567 -0.0689438
0.81644 0.959786 -0.0452239
0.833333 0.9375 0
0.166667 1 0
0.188928 1.03295 -0.0300554
0.221886 1.05837 -0.0468917
0.260137 1.07445 -0.059412
0.302375 1.08571 -0.0711607
0.347736 1.09423 -0.0826447
0.395926 1.10013 -0.0925698
0.446248 1.10284 -0.100666
0.497774 1.10256 -0.106485
0.549813 1.09984 -0.109127
0.601877 1.09418 -0.108247
0.653221 1.08519 -0.103822
0.702714 1.07385 -0.0958127
0.749555 1.0611 -0.0851272
0.792795 1.04672 -0.0710213
0.827778 1.02868 -0.0476842
0.833333 1 0
0.166667 0 0.0625
0.190587 -0.0345529 0.035399
0.223654 -0.0565079 0.0138156
0.262393 -0.0712767 -0.00152323
0.30505 -0.0825677 -0.0141607
0.350651 -0.0919562 -0.0250677
0.398759 -0.0988609 -0.0328553
0.448425 -0.103035 -0.0370709
0.49875 -0.104882 -0.0385259
0.549302 -0.104552 -0.0378106
0.599664 -0.101565 -0.0343088
0.648941 -0.0953815 -0.0273725
0.696084 -0.0861872 -0.0173195
0.740542 -0.0750324 -0.0052377
0.781071 -0.061751 0.00947834
0.807813 -0.0405563 0.0326508
0.833333 0 0.0625
0.166667 0.0625 0.0625
0.205025 0.0356082 0.0318647
0.240811 0.0140525 0.010505
0.278856 -0.000990807 -0.00399493
0.319461 -0.0128628 -0.0158477
0.362362 -0.0227475 -0.0261137
0.407321 -0.029898 -0.0334782
0.453667 -0.0341156 -0.0375671
0.500655 -0.0359259 -0.0391043
0.547791 -0.0355951 -0.038537
0.594588 -0.0326341 -0.0352399
0.640239 -0.0263951 -0.0286089
0.683886 -0.0169508 -0.0189521
0.724823 -0.00515816 -0.00712244
0.760942 0.0100762 0.00822714
0.790886 0.0317606 0.0325877
0.833333 0.0625 0.0625
0.166667 0.125 0.0625
0.209737 0.104273 0.0311875
0.248912 0.0856724 0.00895958
0.288193 0.0713931 -0.00605168
0.328634 0.0595299 -0.0180519
0.370445 0.0495312 -0.0282692
0.413636 0.042324 -0.0355558
0.457776 0.0381812 -0.0395998
0.502313 0.0365197 -0.0410766
0.546886 0.0369318 -0.0404219
0.591152 0.0398973 -0.0371182
0.634475 0.0461792 -0.0305567
0.676166 0.0558422 -0.0208974
0.715784 0.0681792 -0.00886671
0.752892 0.083198 0.00694674
0.786989 0.101875 0.0322618
0.833333 0.125 0.0625
0.166667 0.1875 0.0625
0.211548 0.171146 0.0315057
0.252714 0.156091 0.0084886
0.293165 0.143713 -0.00742853
0.33395 0.132873 -0.0199589
0.375397 0.123496 -0.0303694
0.417617 0.116712 -0.0377079
0.460384 0.112922 -0.0417814
0.50333 0.111526 -0.0432001
0.54625 0.111986 -0.0424384
0.588968 0.11478 -0.0391522
0.631031 0.120777 -0.0327276
0.671964 0.130045 -0.0231398
0.711732 0.141508 -0.0109136
0.750107 0.154492 0.00554747
0.78581 0.169551 0.0319254
0.833333 0.1875 0.0625
0.166667 0.25 0.0625
0.212231 0.237171 0.031788
0.254351 0.225512 0.0082528
0.295488 0.215538 -0.00840248
[...]
POINT_DATA 4913
SCALARS scalars float 1
LOOKUP_TABLE default
0.166667 0.107848 0.103458 0.110515 0.120371 0.130992 0.14 0.14568 0.148154 0.147782 0.143911 0.136084 0.125392 0.114508 0.105416 0.1032 0.166667 0.166667 0.134873 0.124624 0.122264 0.125372 0.132077 0.138854 0.143322 0.145356 0.145239 0.142304 0.13625 0.12858 0.122596 0.121264 0.131072 0.166667 0.166667 0.141091 0.131476 0.127024 0.127379 0.131606 0.136568 0.139884 0.141295 0.141105 0.138767 0.134011 0.128296 0.124819 0.126223 0.135517 0.166667 0.166667 0.142559 0.133286 0.128244 0.127194 0.129683 0.133129 0.135368 0.136169 0.1359 0.134173 0.130713 0.126735 0.124988 0.127277 0.136036 0.166667 0.166667 0.142806 0.133353 0.127877 0.1258 0.126794 0.12884 0.130189 0.130591 0.13039 0.129342 0.127157 0.124753 0.124272 0.126948 0.135593 0.166667 0.166667 0.142711 0.132889 0.126991 0.12405 0.123754 0.124658 0.125376 0.125551 0.125491 0.125012 0.123819 0.12269 0.12329 0.126372 0.135045 0.166667 0.166667 0.142594 0.132409 0.126129 0.122495 0.12124 0.121352 0.12162 0.121635 0.121667 0.12146 0.120792 0.120599 0.122266 0.126016 0.134897 0.166667 0.166667 0.142642 0.132219 0.125628 0.121426 0.119495 0.119102 0.119071 0.119016 0.119114 0.11898 0.118556 0.119006 0.121547 0.125973 0.135116 0.166667 0.166667 0.142833 0.132315 0.125473 0.120838 0.118555 0.117982 0.117922 0.118017 0.118245 0.118131 0.11778 0.118486 0.121387 0.126107 0.135372 0.166667 0.166667 0.143032 0.132455 0.125434 0.120664 0.118493 0.118124 0.118338 0.118808 0.119282 0.119196 0.11866 0.119012 0.121583 0.126125 0.135373 0.166667 0.166667 0.143219 0.132595 0.125558 0.121075 0.119462 0.119561 0.120207 0.121162 0.121943 0.121868 0.120896 0.120341 0.12198 0.125952 0.135073 0.166667 0.166667 0.143447 0.132853 0.12601 0.122177 0.121426 0.122177 0.123356 0.12479 0.125732 0.12543 0.123835 0.12224 0.122783 0.126027 0.134866 0.166667 0.166667 0.143678 0.133152 0.126636 0.123669 0.124063 0.125832 0.127786 0.129582 0.130317 0.129362 0.126929 0.124363 0.12394 0.126543 0.135028 0.166667 0.166667 0.143857 0.133395 0.127195 0.125085 0.126759 0.129887 0.132869 0.134987 0.135367 0.133612 0.130187 0.126525 0.12501 0.126869 0.135019 0.166667 0.166667 0.143799 0.133339 0.127316 0.125941 0.128866 0.133407 0.137465 0.140018 0.140329 0.138048 0.133609 0.128555 0.125525 0.126239 0.134038 0.166667 0.166667 0.142537 0.131415 0.125694 0.125599 0.130074 0.136078 0.141191 0.144295 0.144776 0.142152 0.136665 0.129934 0.124935 0.123938 0.131138 0.166667 0.166667 0.134064 0.122443 0.119783 0.123102 0.130194 0.137957 0.144171 0.147862 0.148452 0.145331 0.138607 0.129882 0.122236 0.118255 0.123025 0.166667 0.166667 0.135405 0.123677 0.121607 0.125399 0.132588 0.139394 0.143701 0.14563 0.145491 0.142581 0.136607 0.129253 0.124081 0.124287 0.139121 0.166667 0.166667 0.14824 0.135878 0.129609 0.129007 0.132687 0.137091 0.140034 0.141462 0.141589 0.139744 0.135782 0.131598 0.130813 0.136759 0.15276 0.166667 0.166667 0.15195 0.140597 0.133087 0.130224 0.1315 0.133951 0.135547 0.136243 0.136355 0.135322 0.132981 0.131108 0.132951 0.140513 0.155251 0.166667 0.166667 0.153112 0.142178 0.134061 0.129735 0.12914 0.12988 0.130231 0.130214 0.130302 0.130075 0.129264 0.129325 0.132887 0.141179 0.155778 0.166667 0.166667 0.153386 0.142387 0.133702 0.128132 0.125841 0.125086 0.124457 0.123955 0.124183 0.124812 0.125433 0.127159 0.132017 0.140879 0.155778 0.166667 0.166667 0.153338 0.142078 0.132842 0.12619 0.122472 0.120536 0.119179 0.118412 0.118866 0.12016 0.121867 0.124955 0.130945 0.140363 0.155629 0.166667 0.166667 0.153219 0.141695 0.132019 0.124541 0.119777 0.116951 0.115036 0.114125 0.114713 0.116293 0.118647 0.122825 0.129902 0.139961 0.155513 0.166667 0.166667 0.1532 0.141531 0.131536 0.123444 0.117959 0.1145 0.112199 0.111255 0.11193 0.113602 0.116325 0.121287 0.129203 0.139785 0.15548 0.166667 0.166667 0.153302 0.141603 0.131384 0.122917 0.117098 0.113366 0.110958 0.11013 0.11095 0.112734 0.115615 0.120834 0.129032 0.139802 0.155515 0.166667 0.166667 0.153412 0.141717 0.131401 0.122916 0.117238 0.113677 0.111538 0.111018 0.112028 0.113899 0.116619 0.121405 0.129221 0.139832 0.155529 0.166667 0.166667 0.153496 0.141837 0.131607 0.123485 0.118344 0.115282 0.113724 0.113713 0.114905 0.11667 0.118879 0.122722 0.129662 0.139827 0.155477 0.166667 0.166667 0.153572 0.141986 0.132029 0.1246 0.120347 0.118076 0.117233 0.11771 0.118918 0.120279 0.121741 0.124528 0.130463 0.140039 0.155491 0.166667 0.166667 0.153584 0.14205 0.132477 0.126001 0.123057 0.122047 0.122064 0.122797 0.123687 0.124327 0.124846 0.126561 0.131519 0.140492 0.155613 0.166667 0.166667 0.153485 0.141909 0.132696 0.127237 0.125812 0.126422 0.127552 0.128568 0.129099 0.128922 0.128297 0.128701 0.132471 0.140718 0.15558 0.166667 0.166667 0.153121 0.141193 0.132249 0.127861 0.127973 0.130206 0.132579 0.1342 0.134738 0.133933 0.132051 0.13079 0.132932 0.140162 0.155052 0.166667 0.166667 0.15116 0.138127 0.130073 0.127444 0.129486 0.133399 0.136955 0.139288 0.140047 0.13873 0.135485 0.132228 0.13223 0.137921 0.153118 0.166667 0.166667 0.139642 0.127992 0.123737 0.124917 0.130006 0.136034 0.140753 0.143582 0.144324 0.142307 0.137449 0.131556 0.128079 0.129838 0.142064 0.166667 0.166667 0.141235 0.129712 0.125605 0.126931 0.131698 0.136599 0.139743 0.14125 0.141328 0.139265 0.13487 0.129926 0.127915 0.131861 0.141994 0.166667 0.166667 0.152024 0.140086 0.132649 0.129968 0.131197 0.133518 0.135096 0.135975 0.13634 0.135521 0.13345 0.132015 0.134538 0.142932 0.154198 0.166667 0.166667 0.154926 0.143895 0.135303 0.130385 0.129117 0.129288 0.12932 0.12938 0.12979 0.129946 0.129748 0.13089 0.136055 0.145969 0.156543 0.166667 0.166667 0.15577 0.145028 0.135726 0.12923 0.125902 0.124145 0.122715 0.121956 0.122426 0.123579 0.125146 0.12847 0.135527 0.146422 0.157004 0.166667 0.166667 0.155948 0.145045 0.135016 0.127099 0.121915 0.118464 0.115804 0.114474 0.115216 0.117436 0.120656 0.125852 0.134414 0.146154 0.157019 0.166667 0.166667 0.155868 0.144618 0.133889 0.124754 0.11802 0.113175 0.109588 0.107966 0.109031 0.112096 0.11665 0.123414 0.133235 0.145696 0.156893 0.166667 0.166667 0.155715 0.144155 0.132901 0.122861 0.114954 0.109008 0.104727 0.102928 0.104139 0.107649 0.113147 0.121219 0.132145 0.145229 0.156732 0.166667 0.166667 0.155671 0.143961 0.132356 0.121673 0.112954 0.106192 0.101387 0.0994911 0.100805 0.104572 0.110688 0.119667 0.131379 0.1449 0.156621 0.166667 0.166667 0.155752 0.144022 0.132203 0.121172 0.112102 0.104967 0.099914 0.0980298 0.0995176 0.103531 0.10992 0.119159 0.131111 0.144801 0.156613 0.166667 0.166667 0.155843 0.14415 0.132273 0.12126 0.112373 0.105491 0.100688 0.0989672 0.100569 0.104656 0.110855 0.119649 0.131257 0.144835 0.15663 0.166667 0.166667 0.155941 0.144354 0.132634 0.122001 0.113703 0.107548 0.103456 0.102119 0.103748 0.107587 0.113123 0.120953 0.131753 0.144935 0.156606 0.166667 0.166667 0.15604 0.144623 0.133291 0.123414 0.116097 0.110952 0.107714 0.106805 0.108348 0.111646 0.116215 0.122839 0.132617 0.145219 0.156657 0.166667 0.166667 0.156075 0.144816 0.13401 0.125222 0.119365 0.115615 0.113323 0.112716 0.113932 0.116386 0.119748 0.125025 0.133682 0.145624 0.156773 0.166667 0.166667 0.155999 0.144778 0.134496 0.126937 0.122827 0.120836 0.11978 0.119597 0.120443 0.121868 0.123761 0.12741 0.134679 0.145802 0.156711 0.166667 0.166667 0.155554 0.144007 0.134259 0.128075 0.12582 0.125702 0.126095 0.126668 0.127447 0.127951 0.128202 0.129831 0.135244 0.145288 0.156154 0.166667 0.166667 0.153204 0.140813 0.132264 0.12817 0.128218 0.130069 0.131809 0.133118 0.133982 0.133738 0.132329 0.131609 0.134553 0.142916 0.153928 0.166667 0.166667 0.141664 0.130775 0.126165 0.12609 0.129495 0.133726 0.136749 0.138498 0.139212 0.138115 0.134862 0.131142 0.130105 0.134131 0.143564 0.166667 0.166667 0.142944 0.131939 0.12693 0.12629 0.128953 0.132196 0.134336 0.135618 0.136032 0.134817 0.131892 0.128925 0.128748 0.132251 0.14201 0.166667 0.166667 0.15348 0.141932 0.133647 0.129029 0.128068 0.128527 0.128888 0.129434 0.130154 0.13031 0.129903 0.130619 0.135004 0.142998 0.154246 0.166667 0.166667 0.156047 0.145261 0.135725 0.128765 0.125114 0.123179 0.121789 0.121417 0.122224 0.123537 0.125276 0.128846 0.136061 0.145916 0.15658 0.166667 0.166667 0.156737 0.146118 0.135759 0.127033 0.121047 0.11685 0.113686 0.112359 0.113316 0.115898 0.119783 0.12588 0.135249 0.146299 0.157058 0.166667 0.166667 0.156856 0.145984 0.134785 0.124472 0.116353 0.110072 0.10534 0.103318 0.104661 0.108606 0.114536 0.122852 0.133977 0.14601 0.157097 0.166667 0.166667 0.156727 0.145443 0.133465 0.121813 0.111884 0.103845 0.0978893 0.0954305 0.0971774 0.102288 0.109953 0.120129 0.132666 0.145502 0.156968 0.166667 0.166667 0.156547 0.144925 0.132374 0.119724 0.108407 0.0989591 0.0920236 0.089214 0.0911885 0.0970858 0.106085 0.11776 0.131422 0.144909 0.15676 0.166667 0.166667 0.156493 0.144697 0.13175 0.118427 0.106177 0.095681 0.0879621 0.0849043 0.087078 0.093525 0.103412 0.116082 0.130504 0.144451 0.156599 0.166667 0.166667 0.156533 0.144666 0.131481 0.117853 0.105269 0.0943336 0.086191 0.0829822 0.0853634 0.0922129 0.102483 0.115468 0.130167 0.144324 0.15659 0.166667 0.166667 0.15659 0.144732 0.131501 0.117944 0.105653 0.0950933 0.0871653 0.0839772 0.0864164 0.0933193 0.103356 0.115927 0.130349 0.144404 0.156628 0.166667 0.166667 0.156699 0.144995 0.131981 0.118857 0.107302 0.0977023 0.0905855 0.0877371 0.0901057 0.0965917 0.105782 0.117316 0.130933 0.144557 0.156625 0.166667 0.166667 0.156845 0.145417 0.132914 0.120647 0.110229 0.101888 0.0958535 0.0935398 0.09573 0.101387 0.109274 0.11939 0.131906 0.14491 0.1567 0.166667 0.166667 0.156935 0.145779 0.133963 0.122976 0.114218 0.107519 0.102748 0.100957 0.102719 0.107156 0.113404 0.121857 0.133106 0.145386 0.156834 0.166667 0.166667 0.156883 0.145862 0.134762 0.125284 0.118588 0.113964 0.110789 0.109639 0.110878 0.113851 0.118161 0.124625 0.134274 0.145622 0.15677 0.166667 0.166667 0.156381 0.145177 0.134841 0.127052 0.122629 0.120276 0.118845 0.118543 0.119527 0.121186 0.123411 0.127488 0.135051 0.145192 0.156199 0.166667 0.166667 0.15407 0.14208 0.133151 0.127731 0.125973 0.125969 0.126083 0.12645 0.1273 0.127947 0.128204 0.129617 0.134481 0.142732 0.153926 0.166667 0.166667 0.142441 0.131868 0.126977 0.125764 0.12759 0.130235 0.131834 0.132625 0.133116 0.132658 0.130802 0.128907 0.129568 0.133791 0.143591 0.166667 0.166667 0.143378 0.132533 0.126683 0.124437 0.125476 0.127342 0.128723 0.129924 0.130558 0.12995 0.128182 0.126617 0.127347 0.131552 0.141786 0.166667 0.166667 0.154047 0.142467 0.133224 0.126957 0.124251 0.123156 0.122633 0.123052 0.124024 0.124892 0.125793 0.128131 0.133604 0.142366 0.154073 0.166667 0.166667 0.156461 0.145523 0.134888 0.126113 0.120486 0.116738 0.114261 0.113681 0.11483 0.117098 0.12048 0.125978 0.134538 0.145286 0.15644 0.166667 0.166667 0.157088 0.146238 0.134642 0.12388 0.115574 0.109147 0.104562 0.102894 0.104328 0.10825 0.114249 0.122655 0.133613 0.145674 0.156947 0.166667 0.166667 0.157189 0.146054 0.13352 0.120958 0.110134 0.101156 0.0945891 0.0919951 0.0939277 0.0996664 0.108255 0.119292 0.13222 0.145361 0.156998 0.166667 0.166667 0.15706 0.145503 0.132099 0.117991 0.105016 0.0938382 0.0855646 0.0822263 0.0847077 0.0921188 0.102976 0.116198 0.130688 0.144727 0.156827 0.166667 0.166667 0.156881 0.144959 0.130879 0.115614 0.100987 0.0880049 0.0782754 0.0743265 0.0772564 0.0859696 0.0985856 0.113488 0.129163 0.14394 0.156543 0.166667 0.166667 0.156794 0.144631 0.130097 0.114114 0.0984159 0.0841094 0.0732202 0.0688042 0.072135 0.0818112 0.0956097 0.111616 0.128095 0.143397 0.156362 0.166667 0.166667 0.156761 0.144449 0.129682 0.113456 0.0974318 0.0826034 0.0711015 0.0663802 0.069992 0.08025 0.0945632 0.110975 0.127784 0.143311 0.156378 0.166667 0.166667 0.15677 0.144432 0.12966 0.113602 0.0979825 0.0836292 0.0723867 0.0676847 0.0713141 0.0815255 0.0955238 0.111526 0.12807 0.143469 0.156447 0.166667 0.166667 0.156887 0.144738 0.130266 0.114747 0.100045 0.086899 0.0767215 0.0724899 0.0759103 0.085381 0.0982553 0.113093 0.128793 0.143729 0.1565 0.166667 0.166667 0.157074 0.14529 0.131465 0.116954 0.103615 0.0920903 0.083431 0.079977 0.0829896 0.0911213 0.102262 0.11546 0.129981 0.144227 0.156637 0.166667 0.166667 0.157198 0.145782 0.132831 0.119819 0.108414 0.0989516 0.0920891 0.0894656 0.0918093 0.0981232 0.107091 0.118331 0.131455 0.14487 0.156835 0.166667 0.166667 0.157136 0.145945 0.133908 0.122703 0.113749 0.106816 0.101986 0.100231 0.101843 0.106162 0.112636 0.121514 0.132857 0.145235 0.15681 0.166667 0.166667 0.156631 0.145337 0.134247 0.125041 0.118811 0.114611 0.111805 0.110909 0.112027 0.114634 0.118579 0.124721 0.133789 0.144845 0.156248 0.166667 0.166667 0.154328 0.14227 0.132747 0.126165 0.122929 0.12143 0.120354 0.120056 0.120797 0.122088 0.123758 0.126987 0.133187 0.142334 0.153951 0.166667 0.166667 0.142528 0.131789 0.126401 0.124187 0.124696 0.126073 0.126696 0.126834 0.127009 0.126876 0.12611 0.125817 0.127847 0.133156 0.143583 0.166667 0.166667 0.14318 0.132076 0.125504 0.122212 0.12208 0.122948 0.123855 0.124879 0.125439 0.125198 0.124325 0.123897 0.125846 0.130945 0.14164 0.166667 0.166667 0.154039 0.142024 0.131906 0.124501 0.120518 0.118334 0.117294 0.117532 0.118476 0.119817 0.121805 0.125475 0.132218 0.141833 0.15395 0.166667 0.166667 0.156379 0.1449 0.133242 0.123175 0.116049 0.110985 0.107841 0.107042 0.10827 0.111266 0.116048 0.123149 0.133114 0.14476 0.156336 0.166667 0.166667 0.156987 0.145526 0.132777 0.120511 0.110363 0.102256 0.0967157 0.0946918 0.0963496 0.101391 0.109232 0.119581 0.132115 0.145146 0.156864 0.166667 0.166667 0.157112 0.145344 0.13153 0.117235 0.104241 0.0931452 0.0851136 0.081837 0.0841437 0.0915353 0.102524 0.115868 0.130543 0.144748 0.156886 0.166667 0.166667 0.156999 0.14476 0.129916 0.113881 0.0984708 0.0846872 0.0742746 0.0698355 0.0729258 0.0826281 0.0964355 0.112267 0.128645 0.143878 0.156614 0.166667 0.166667 0.156801 0.144108 0.128435 0.111107 0.0938243 0.0777827 0.065264 0.0598058 0.0636696 0.0753428 0.0913804 0.109104 0.126775 0.142874 0.156251 0.166667 0.166667 0.156651 0.143625 0.12743 0.109322 0.0908307 0.0731906 0.0590471 0.0527476 0.0572679 0.0704703 0.0880696 0.107056 0.125591 0.14227 0.156052 0.166667 0.166667 0.156544 0.143312 0.126899 0.108562 0.0897074 0.0714904 0.056602 0.0498277 0.0547164 0.0687157 0.0869863 0.10645 0.12532 0.142208 0.156074 0.166667 0.166667 0.156524 0.143271 0.126923 0.108813 0.090408 0.0727751 0.0583753 0.0518165 0.0566355 0.0703382 0.0881315 0.107131 0.125715 0.142441 0.156179 0.166667 0.166667 0.156672 0.143688 0.127754 0.110282 0.0929125 0.0767261 0.0638557 0.0581929 0.0625908 0.0749833 0.0912496 0.108934 0.126641 0.142856 0.156302 0.166667 0.166667 0.156923 0.14444 0.129315 0.112991 0.097188 0.0829921 0.0722139 0.0677662 0.0714566 0.0818136 0.0958449 0.111679 0.12813 0.143566 0.156531 0.166667 0.166667 0.157096 0.145125 0.131064 0.116424 0.102841 0.0911537 0.0827397 0.0795002 0.0822521 0.0901219 0.101426 0.11502 0.129941 0.144425 0.15681 0.166667 0.166667 0.157042 0.145396 0.132449 0.119856 0.109076 0.100369 0.0943931 0.0922194 0.0940483 0.0994161 0.107701 0.118602 0.131588 0.144929 0.156839 0.166667 0.166667 0.156533 0.144838 0.133035 0.12272 0.115017 0.10943 0.105694 0.104352 0.105469 0.108764 0.114133 0.122018 0.132604 0.144573 0.156286 0.166667 0.166667 0.154217 0.141776 0.131692 0.124234 0.119766 0.117151 0.115338 0.114559 0.115064 0.116711 0.119497 0.124253 0.131926 0.142027 0.153966 0.166667 0.166667 0.142245 0.131086 0.125238 0.12225 0.121652 0.122085 0.122159 0.121875 0.121651 0.121571 0.12161 0.122686 0.12626 0.132692 0.143621 0.166667 0.166667 0.142823 0.131387 0.124381 0.120407 0.119336 0.119431 0.119877 0.120533 0.12092 0.121077 0.12118 0.122021 0.12509 0.130807 0.141685 0.166667 0.166667 0.153826 0.141329 0.130643 0.122488 0.117501 0.114489 0.112936 0.112783 0.11362 0.115521 0.118662 0.12368 0.131517 0.141683 0.15394 0.166667 0.166667 0.156094 0.144033 0.131698 0.12076 0.112482 0.106453 0.102678 0.101438 0.102675 0.106494 0.112679 0.121262 0.132358 0.144567 0.156319 0.166667 0.166667 0.156675 0.144563 0.131018 0.117699 0.106209 0.096911 0.0904664 0.0878485 0.0896638 0.0959004 0.105488 0.117504 0.131247 0.1449 0.156836 0.166667 0.166667 0.156808 0.144334 0.1296 0.114131 0.0996209 0.0869497 0.077479 0.0732794 0.0759381 0.0850379 0.098202 0.113436 0.129426 0.14435 0.156804 0.166667 0.166667 0.156679 0.143635 0.12776 0.110503 0.0934003 0.0775469 0.06497 0.059127 0.06287 0.0749447 0.0913888 0.10934 0.127157 0.143242 0.156433 0.166667 0.166667 0.156443 0.142837 0.126046 0.107439 0.0882997 0.0697674 0.0542988 0.0467403 0.051694 0.0666058 0.0857784 0.105832 0.125038 0.142086 0.155998 0.166667 0.166667 0.156236 0.142226 0.124855 0.105423 0.0849988 0.0646562 0.0468947 0.037578 0.0436903 0.0610592 0.0822436 0.103703 0.123795 0.141438 0.155775 0.166667 0.166667 0.156076 0.141834 0.124235 0.104554 0.0837644 0.0628329 0.0440948 0.0337818 0.0405285 0.0591282 0.0811573 0.103134 0.123546 0.14138 0.155797 0.166667 0.166667 0.156055 0.14183 0.124332 0.104874 0.0845416 0.0643178 0.0464595 0.0368797 0.0432498 0.0610666 0.0824123 0.103882 0.124003 0.141662 0.155926 0.166667 0.166667 0.156272 0.142424 0.125415 0.106604 0.08734 0.0687938 0.0532186 0.0455315 0.050924 0.0664193 0.0857777 0.105817 0.125051 0.142166 0.156086 0.166667 0.166667 0.15663 0.143445 0.127368 0.109759 0.0921609 0.0759025 0.0631536 0.0574888 0.0617602 0.0742636 0.0908312 0.108821 0.126734 0.142992 0.156354 0.166667 0.166667 0.156889 0.144379 0.129515 0.113698 0.0985114 0.0851114 0.0752815 0.0713047 0.0744051 0.0837374 0.0970464 0.112531 0.128787 0.143978 0.156667 0.166667 0.166667 0.15687 0.144807 0.131213 0.117573 0.105424 0.0953726 0.0883561 0.0856344 0.0876261 0.0939999 0.10387 0.116415 0.13061 0.144567 0.156711 0.166667 0.166667 0.156364 0.144346 0.132058 0.120858 0.111984 0.105341 0.100817 0.0989511 0.0999991 0.10393 0.110572 0.119937 0.13168 0.144232 0.156153 0.166667 0.166667 0.154043 0.141331 0.130907 0.122711 0.117222 0.113728 0.111331 0.110083 0.110316 0.112269 0.116025 0.122133 0.130973 0.141679 0.153824 0.166667 0.166667 0.141935 0.130519 0.124405 0.12076 0.119247 0.118918 0.118543 0.117893 0.11734 0.117327 0.118067 0.120387 0.125158 0.1323 0.143533 0.166667 0.166667 0.14258 0.130996 0.123847 0.119426 0.117552 0.116912 0.116825 0.117139 0.117567 0.118308 0.119404 0.121294 0.125055 0.130994 0.141838 0.166667 0.166667 0.153654 0.140902 0.130002 0.121363 0.11554 0.111728 0.109553 0.109034 0.110021 0.112684 0.116915 0.122956 0.131406 0.141737 0.153975 0.166667 0.166667 0.155854 0.143477 0.130851 0.119341 0.110167 0.103251 0.0987361 0.097111 0.0986643 0.103488 0.110911 0.120518 0.132185 0.144563 0.156334 0.166667 0.166667 0.156416 0.14393 0.129984 0.116012 0.103566 0.0932176 0.0857994 0.0827049 0.085019 0.0925606 0.103573 0.116663 0.130998 0.144864 0.156846 0.166667 0.166667 0.15653 0.143627 0.128437 0.112299 0.0967311 0.0827031 0.0718437 0.066966 0.0703713 0.0811624 0.0959611 0.11234 0.128976 0.144212 0.156795 0.166667 0.166667 0.156356 0.142828 0.126498 0.108569 0.0902668 0.0726768 0.0580806 0.0511401 0.0560853 0.0704573 0.0887976 0.107968 0.126471 0.142951 0.15637 0.166667 0.166667 0.156087 0.141956 0.124696 0.105402 0.0849648 0.0643618 0.0459719 0.0363316 0.0433874 0.0616184 0.08303 0.104364 0.124239 0.141683 0.15587 0.166667 0.166667 0.15585 0.141275 0.123413 0.103302 0.0815596 0.058914 0.0371878 0.0237782 0.0337133 0.0557461 0.0794988 0.102278 0.122996 0.141 0.155612 0.166667 0.166667 0.155662 0.140832 0.122734 0.102392 0.0802907 0.0569693 0.033746 0.0174821 0.0296357 0.0536707 0.0784113 0.101743 0.122776 0.140958 0.155636 0.166667 0.166667 0.155653 0.140857 0.122854 0.102735 0.0811094 0.0586078 0.0368159 0.0229282 0.0331666 0.0556717 0.0796193 0.102475 0.123261 0.14128 0.155789 0.166667 0.166667 0.155939 0.141588 0.124078 0.104587 0.0840849 0.0635309 0.0450716 0.0351658 0.0425554 0.061326 0.0829704 0.104385 0.124327 0.141812 0.155966 0.166667 0