# vtk DataFile Version 5.1
vtk output
ASCII

DATASET UNSTRUCTURED_GRID
POINTS 4913 float
0.166667 0 0
0.188049 -0.0222567 -0.0428228
0.228454 -0.0531372 -0.063665
0.274356 -0.074466 -0.0887165
0.316765 -0.0898641 -0.101537
0.363303 -0.0962303 -0.108985
0.407407 -0.106058 -0.117999
0.457 -0.114557 -0.122177
0.509661 -0.118141 -0.119252
0.562039 -0.125316 -0.12278
0.611242 -0.128157 -0.109451
0.660168 -0.129282 -0.0925722
0.707504 -0.124401 -0.0762727
0.755009 -0.117488 -0.0653333
0.795169 -0.098736 -0.0510745
0.832233 -0.071542 -0.0274755
0.833333 0 0
0.166667 0.0625 0
0.203143 0.0398229 -0.0496033
0.249229 0.0108636 -0.0699347
0.292818 -0.00401358 -0.0910999
0.336384 -0.0170073 -0.107538
0.380629 -0.0222762 -0.116976
0.424448 -0.0362001 -0.124595
0.47058 -0.0458703 -0.126909
0.519041 -0.0484894 -0.125874
0.566073 -0.0548133 -0.127342
0.614914 -0.0596406 -0.116423
0.657062 -0.0567839 -0.1028
0.699267 -0.0532867 -0.0868418
0.739003 -0.04668 -0.0736005
0.777516 -0.0329261 -0.0573791
0.8071 0.000265291 -0.0362787
0.833333 0.0625 0
0.166667 0.125 0
0.207639 0.105403 -0.0447069
0.255527 0.0842603 -0.0688099
0.29899 0.071118 -0.0908973
0.344069 0.0581255 -0.112873
0.386268 0.0514802 -0.121208
0.431974 0.0362093 -0.129632
0.474608 0.0277594 -0.127989
0.522932 0.0277219 -0.134489
0.568042 0.0182687 -0.130506
0.616127 0.016687 -0.120498
0.658145 0.0203387 -0.111231
0.697372 0.0239725 -0.0949783
0.734952 0.0293866 -0.0783066
0.770485 0.047986 -0.0625375
0.804152 0.0789984 -0.040776
0.833333 0.125 0
0.166667 0.1875 0
0.208448 0.170322 -0.0497062
0.251461 0.160896 -0.0791181
0.300205 0.144208 -0.090633
0.342475 0.136891 -0.11696
0.391436 0.122499 -0.124608
0.433291 0.113404 -0.129724
0.479138 0.10542 -0.133063
0.523547 0.102776 -0.136216
0.572405 0.0944684 -0.137393
0.614843 0.096441 -0.124301
0.657667 0.0989374 -0.116693
0.695843 0.101407 -0.100421
0.73325 0.111318 -0.0881994
0.765267 0.126655 -0.065024
0.802101 0.152912 -0.0416343
0.833333 0.1875 0
0.166667 0.25 0
0.20818 0.236833 -0.0590877
0.254499 0.233115 -0.0749433
0.301676 0.219825 -0.0985661
0.345699 0.207492 -0.106579
0.396282 0.19751 -0.136515
0.435797 0.188965 -0.130709
0.482228 0.182957 -0.142943
0.523228 0.17683 -0.138586
0.5725 0.172418 -0.14193
0.613415 0.177158 -0.130042
0.655906 0.177301 -0.120799
0.693564 0.181506 -0.104584
0.732292 0.190833 -0.0926532
0.765764 0.204346 -0.0697385
0.801913 0.225928 -0.0439681
0.833333 0.25 0
0.166667 0.3125 0
0.211876 0.306143 -0.0611614
0.261681 0.30025 -0.0857674
0.30009 0.296669 -0.102436
0.350451 0.278597 -0.121332
0.390546 0.271432 -0.129447
0.438556 0.26603 -0.141856
0.479377 0.259196 -0.143079
0.526527 0.252904 -0.147476
0.568435 0.252077 -0.141243
0.614439 0.257132 -0.135748
0.654324 0.259108 -0.125952
0.693006 0.259659 -0.106694
0.732701 0.270188 -0.0969962
0.768076 0.280049 -0.0739847
0.802998 0.296413 -0.0448331
0.833333 0.3125 0
0.166667 0.375 0
0.217799 0.371431 -0.0616945
0.269482 0.372401 -0.121475
0.302434 0.359853 -0.0963128
0.353413 0.35311 -0.144181
0.389584 0.341978 -0.118477
0.441938 0.344668 -0.155815
0.481747 0.33373 -0.143708
0.530925 0.330943 -0.158288
0.566131 0.332381 -0.143301
0.610445 0.338698 -0.138466
0.652282 0.337194 -0.127875
0.694019 0.339276 -0.113252
0.732381 0.347057 -0.0996052
0.768317 0.352728 -0.0750238
0.803171 0.365596 -0.0455542
0.833333 0.375 0
0.166667 0.4375 0
0.21537 0.433266 -0.0413609
0.270672 0.438003 -0.119228
0.307652 0.426829 -0.0963676
0.360901 0.421034 -0.146457
0.397448 0.416869 -0.131324
0.44269 0.41899 -0.156026
0.484207 0.41402 -0.155164
0.525263 0.411345 -0.158415
0.566059 0.415616 -0.154046
0.608414 0.417327 -0.144147
0.648626 0.415883 -0.132423
0.691634 0.416568 -0.118326
0.730223 0.421875 -0.100603
0.770635 0.425908 -0.0799408
0.804051 0.43377 -0.0476797
0.833333 0.4375 0
0.166667 0.5 0
0.194291 0.501007 -0.0160118
0.258654 0.500374 -0.0787008
0.297055 0.507299 -0.114896
0.352989 0.489598 -0.126211
0.387429 0.498386 -0.153198
0.435713 0.489303 -0.143028
0.469135 0.500051 -0.164974
0.514636 0.489458 -0.15878
0.554443 0.495648 -0.156975
0.598917 0.497453 -0.152382
0.640481 0.493185 -0.140695
0.685067 0.491902 -0.12509
0.723596 0.497237 -0.106018
0.766825 0.497939 -0.0843098
0.804846 0.501533 -0.0527732
0.833333 0.5 0
0.166667 0.5625 0
0.199463 0.567181 -0.0412202
0.248939 0.569497 -0.0781796
0.294019 0.571739 -0.100106
0.339887 0.564511 -0.125998
0.386452 0.568271 -0.134383
0.430596 0.572707 -0.158569
0.471346 0.572086 -0.153399
0.514948 0.569252 -0.166546
0.552894 0.576669 -0.155043
0.601525 0.572632 -0.151868
0.641443 0.570249 -0.14027
0.68711 0.56929 -0.125174
0.723869 0.571454 -0.106192
0.767334 0.569575 -0.0837073
0.805563 0.570041 -0.0529711
0.833333 0.5625 0
0.166667 0.625 0
0.216055 0.633279 -0.0723529
0.259571 0.645283 -0.100095
0.302889 0.633404 -0.0848676
0.349464 0.643061 -0.130775
0.396498 0.641565 -0.137674
0.439767 0.646354 -0.1553
0.481267 0.650381 -0.15363
0.523093 0.650112 -0.167748
0.568367 0.648746 -0.156781
0.608617 0.64828 -0.146677
0.651418 0.651919 -0.142639
0.693114 0.645752 -0.123254
0.73216 0.642969 -0.104481
0.769516 0.643695 -0.0818429
0.807036 0.63506 -0.0486201
0.833333 0.625 0
0.166667 0.6875 0
0.21896 0.697708 -0.0697107
0.268294 0.707172 -0.105869
0.309009 0.710669 -0.098519
0.351104 0.708981 -0.11473
0.402774 0.720145 -0.149488
0.440982 0.721105 -0.14581
0.488723 0.729804 -0.165886
0.520117 0.723369 -0.150652
0.575882 0.727297 -0.160479
0.602671 0.726698 -0.13645
0.655973 0.727056 -0.139081
0.689762 0.724449 -0.119009
0.731093 0.717418 -0.0990806
0.769069 0.715488 -0.0781956
0.807125 0.70065 -0.0454673
0.833333 0.6875 0
0.166667 0.75 0
0.211152 0.756416 -0.0496932
0.260827 0.77188 -0.0949475
0.305047 0.788993 -0.111302
0.3436 0.778576 -0.107958
0.395021 0.792419 -0.151846
0.433921 0.79231 -0.139442
0.484249 0.800236 -0.158693
0.52155 0.800019 -0.15833
0.566781 0.806128 -0.161839
0.600881 0.800427 -0.137714
0.644416 0.804723 -0.133306
0.686739 0.802812 -0.123768
0.727109 0.791613 -0.10082
0.765079 0.787403 -0.0776079
0.807432 0.766574 -0.0456969
0.833333 0.75 0
0.166667 0.8125 0
0.200067 0.828184 -0.0304246
0.253189 0.838497 -0.0764241
0.309366 0.86206 -0.122778
0.343441 0.850866 -0.120906
0.398059 0.859248 -0.146932
0.436091 0.877959 -0.155592
0.488978 0.866569 -0.148878
0.529939 0.878523 -0.176826
0.567046 0.874447 -0.153123
0.611566 0.882595 -0.159348
0.639703 0.877513 -0.122659
0.693333 0.878596 -0.130401
0.727601 0.867046 -0.0996066
0.766258 0.857735 -0.0771959
0.80564 0.836001 -0.0441455
0.833333 0.8125 0
0.166667 0.875 0
0.205302 0.899462 -0.0131824
0.25127 0.909164 -0.0797834
0.308588 0.934362 -0.0984768
0.353772 0.923659 -0.15359
0.400966 0.929075 -0.142651
0.43651 0.959801 -0.171776
0.48047 0.943615 -0.147818
0.520585 0.955291 -0.174196
0.553181 0.954046 -0.147337
0.610616 0.955929 -0.156628
0.63312 0.954295 -0.119527
0.685662 0.954957 -0.121635
0.723909 0.944619 -0.0973054
0.765338 0.927332 -0.0745248
0.798313 0.906547 -0.0401425
0.833333 0.875 0
0.166667 0.9375 0
0.207823 0.976107 -0.0236945
0.247464 0.988963 -0.100977
0.305019 1.01923 -0.111464
0.348951 0.998126 -0.154703
0.397492 1.00999 -0.152419
0.437322 1.02862 -0.172631
0.468866 1.03278 -0.146286
0.520478 1.02144 -0.166349
0.544356 1.03798 -0.139796
0.610396 1.03548 -0.144707
0.643951 1.03137 -0.131551
0.687783 1.0301 -0.116962
0.73067 1.01916 -0.102172
0.77013 0.998739 -0.0755064
0.802498 0.971906 -0.0425794
0.833333 0.9375 0
0.166667 1 0
0.211644 1.05464 -0.0483485
0.243961 1.05098 -0.0766615
0.295663 1.0994 -0.100097
0.3432 1.06969 -0.130375
0.387563 1.0929 -0.135804
0.446024 1.09881 -0.153659
0.466588 1.11297 -0.118392
0.525447 1.10779 -0.147498
0.570281 1.11114 -0.156088
0.608715 1.11929 -0.138657
0.651509 1.10065 -0.127396
0.697217 1.10747 -0.122565
0.74255 1.09176 -0.105922
0.777155 1.07222 -0.0779442
0.809341 1.03753 -0.0459252
0.833333 1 0
0.166667 0 0.0625
0.206945 -0.0302453 0.0268954
0.249811 -0.0555204 -0.00341447
0.292226 -0.0723903 -0.0180426
0.331016 -0.0863484 -0.0326747
0.37365 -0.0981544 -0.0384066
0.416785 -0.111403 -0.0486273
0.464512 -0.119046 -0.0519459
0.512689 -0.126905 -0.0508148
0.557531 -0.130331 -0.0504674
0.603298 -0.129906 -0.0357961
0.646864 -0.1314 -0.0228374
0.688689 -0.125264 -0.00729569
0.729326 -0.11643 0.00489167
0.769925 -0.0946051 0.0192613
0.800854 -0.0654156 0.0410927
0.833333 0 0.0625
0.166667 0.0625 0.0625
0.215217 0.0360508 0.020307
0.260496 0.0161846 -0.00179876
0.302342 0.000950788 -0.0209542
0.344852 -0.0135571 -0.0359871
0.386968 -0.0263781 -0.0438387
0.430221 -0.0412966 -0.0520359
0.475913 -0.0479757 -0.0565666
0.520782 -0.052132 -0.0568993
0.56562 -0.0584944 -0.0573519
0.605562 -0.0557757 -0.0416999
0.646466 -0.0561942 -0.0300478
0.683737 -0.049671 -0.0127969
0.721752 -0.0418367 0.000406603
0.754579 -0.0181504 0.0183877
0.788433 0.00601198 0.0424452
0.833333 0.0625 0.0625
0.166667 0.125 0.0625
0.216206 0.10574 0.0237617
0.264733 0.0895327 -1.37776e-05
0.307654 0.0760106 -0.0224012
0.351379 0.0612833 -0.0398529
0.394236 0.0469868 -0.0490521
0.4355 0.034078 -0.0539729
0.479348 0.0271689 -0.0618851
0.522392 0.023849 -0.0617351
0.567025 0.0179494 -0.0628328
0.606003 0.0209605 -0.0483404
0.643802 0.022074 -0.0367387
0.680456 0.0276701 -0.0185188
0.716361 0.038505 -0.00550827
0.750045 0.0598815 0.0129523
0.782851 0.0792064 0.0416104
0.833333 0.125 0.0625
0.166667 0.1875 0.0625
0.219201 0.176144 0.0261142
0.262844 0.164297 -0.0122942
0.31397 0.147529 -0.0228033
0.352969 0.134157 -0.0477618
0.398106 0.123021 -0.0491784
0.437078 0.111634 -0.0584292
0.480143 0.102635 -0.0609578
0.52413 0.100427 -0.0678201
0.565985 0.0960245 -0.0641677
0.605818 0.0996811 -0.0542092
0.642458 0.100234 -0.040686
0.67786 0.108012 -0.0253195
0.712364 0.117117 -0.00822965
0.748547 0.135753 0.0103693
0.782492 0.15199 0.0391104
0.833333 0.1875 0.0625
0.166667 0.25 0.0625
0.216401 0.247185 0.0145994
0.2632 0.231562 -0.00604591
0.308095 0.226949 -0.0275707
0.355728 0.205608 -0.0465761
0.394659 0.203174 -0.0519615
0.439827 0.188938 -0.062911
[...]
POINT_DATA 4913
SCALARS scalars float 1
LOOKUP_TABLE default
0.166667 0.134505 0.132588 0.144775 0.151139 0.154009 0.161933 0.168614 0.168141 0.175441 0.169094 0.16134 0.151983 0.146209 0.136859 0.130209 0.166667 0.166667 0.150848 0.151625 0.154321 0.15921 0.159725 0.166465 0.17013 0.168895 0.17318 0.16904 0.160384 0.153369 0.150795 0.147992 0.148975 0.166667 0.166667 0.153128 0.153074 0.153608 0.161436 0.159807 0.167136 0.164967 0.167559 0.168683 0.162266 0.155525 0.148314 0.145902 0.144102 0.146835 0.166667 0.166667 0.155134 0.151525 0.150967 0.157457 0.161193 0.160363 0.161792 0.162134 0.166222 0.154421 0.149501 0.142931 0.140937 0.141321 0.145817 0.166667 0.166667 0.157758 0.150571 0.153825 0.149413 0.168555 0.156546 0.164098 0.158428 0.162059 0.149503 0.144484 0.137165 0.136083 0.137406 0.144556 0.166667 0.166667 0.161538 0.161827 0.153037 0.161125 0.156634 0.162241 0.158324 0.161259 0.153739 0.146986 0.140767 0.132 0.132538 0.134013 0.142687 0.166667 0.166667 0.167143 0.18878 0.150716 0.178778 0.145152 0.172276 0.155926 0.16719 0.149549 0.143884 0.137919 0.131287 0.130847 0.13231 0.142154 0.166667 0.166667 0.158423 0.188244 0.154392 0.184445 0.157759 0.171081 0.163734 0.162535 0.155633 0.146493 0.139694 0.133588 0.130899 0.131973 0.14176 0.166667 0.166667 0.132764 0.155105 0.158923 0.16323 0.170547 0.155748 0.16798 0.159801 0.157242 0.154619 0.1485 0.141172 0.138389 0.137165 0.142774 0.166667 0.166667 0.143108 0.146703 0.146468 0.154787 0.153496 0.168343 0.157381 0.167352 0.155985 0.154005 0.14784 0.140249 0.138608 0.136561 0.142373 0.166667 0.166667 0.169949 0.168937 0.143484 0.165291 0.162124 0.169614 0.161746 0.171182 0.158678 0.149414 0.149574 0.137325 0.133018 0.134813 0.139593 0.166667 0.166667 0.171591 0.179244 0.158136 0.154423 0.177656 0.163535 0.178694 0.156164 0.16588 0.143713 0.147994 0.138409 0.131678 0.134608 0.138701 0.166667 0.166667 0.15687 0.167161 0.166511 0.145714 0.17795 0.157181 0.172895 0.167436 0.171349 0.148626 0.150404 0.148693 0.138521 0.139659 0.138855 0.166667 0.166667 0.141762 0.151489 0.17995 0.157548 0.176337 0.179515 0.166548 0.191109 0.165242 0.174601 0.146821 0.156794 0.14179 0.14082 0.141025 0.166667 0.166667 0.14548 0.153221 0.166984 0.191641 0.176351 0.2012 0.168536 0.192911 0.167461 0.176887 0.1534 0.159147 0.148874 0.142543 0.148256 0.166667 0.166667 0.152219 0.16686 0.181423 0.193391 0.188971 0.204912 0.177377 0.187449 0.173116 0.175365 0.167374 0.161635 0.154287 0.143001 0.145679 0.166667 0.166667 0.166031 0.150425 0.17776 0.174758 0.180852 0.196007 0.166208 0.184452 0.191769 0.183635 0.166301 0.171341 0.156631 0.144447 0.141218 0.166667 0.166667 0.151812 0.151674 0.150648 0.151914 0.153479 0.162806 0.16733 0.170605 0.172547 0.164343 0.161863 0.155954 0.154248 0.147853 0.153002 0.166667 0.166667 0.160631 0.156967 0.15473 0.156465 0.15733 0.164139 0.166905 0.166819 0.170335 0.158822 0.156004 0.150475 0.151581 0.151498 0.160668 0.166667 0.166667 0.159678 0.157134 0.155065 0.157524 0.158779 0.159665 0.163688 0.161763 0.16489 0.153202 0.149505 0.144477 0.146114 0.149363 0.162633 0.166667 0.166667 0.16127 0.158536 0.157699 0.160018 0.154783 0.15567 0.155764 0.158579 0.156284 0.147313 0.142448 0.13869 0.141364 0.146238 0.160735 0.166667 0.166667 0.161208 0.155364 0.152274 0.158261 0.148473 0.153815 0.149562 0.155334 0.150198 0.14245 0.138707 0.134951 0.139091 0.145632 0.160017 0.166667 0.166667 0.160319 0.153332 0.14966 0.154185 0.148662 0.151725 0.150441 0.148354 0.147582 0.138821 0.135616 0.131961 0.137293 0.143583 0.158919 0.166667 0.166667 0.16331 0.156885 0.159091 0.15189 0.155224 0.150366 0.15483 0.143538 0.144125 0.135574 0.133892 0.129197 0.134282 0.140865 0.155718 0.166667 0.166667 0.178759 0.160178 0.177667 0.152049 0.16514 0.151105 0.157154 0.147717 0.14381 0.133642 0.130585 0.124362 0.12982 0.137985 0.153659 0.166667 0.166667 0.182571 0.169227 0.176527 0.165846 0.166319 0.156161 0.15855 0.147697 0.148055 0.133745 0.133087 0.124203 0.129603 0.137373 0.156482 0.166667 0.166667 0.162034 0.161522 0.154966 0.166193 0.158184 0.152488 0.15479 0.148873 0.147702 0.136573 0.145364 0.131231 0.136638 0.143696 0.159562 0.166667 0.166667 0.156382 0.156045 0.145257 0.15378 0.156851 0.153758 0.152587 0.158862 0.148517 0.142658 0.145355 0.1398 0.140315 0.14715 0.162058 0.166667 0.166667 0.163409 0.158323 0.147281 0.154678 0.152088 0.152276 0.139926 0.162411 0.144014 0.144991 0.143681 0.144746 0.140996 0.147333 0.16089 0.166667 0.166667 0.163717 0.162035 0.148814 0.159943 0.149564 0.168698 0.134057 0.165306 0.146999 0.151221 0.145287 0.149139 0.143508 0.146004 0.160121 0.166667 0.166667 0.169478 0.179163 0.152145 0.176856 0.145278 0.185065 0.140535 0.175281 0.164511 0.158716 0.153065 0.155802 0.148061 0.146449 0.159956 0.166667 0.166667 0.164127 0.182551 0.167033 0.191632 0.15903 0.182617 0.167513 0.157626 0.18099 0.163698 0.156522 0.159334 0.150762 0.151354 0.156922 0.166667 0.166667 0.160851 0.183106 0.172275 0.192148 0.181786 0.172676 0.182627 0.157166 0.18451 0.167935 0.159718 0.164158 0.157709 0.155595 0.159375 0.166667 0.166667 0.153729 0.171984 0.168899 0.166132 0.193688 0.157302 0.180864 0.175089 0.176655 0.175893 0.163143 0.169795 0.160047 0.154609 0.15771 0.166667 0.166667 0.157913 0.152816 0.147699 0.151329 0.152218 0.15991 0.165035 0.167483 0.167593 0.161194 0.163189 0.156896 0.157039 0.16027 0.161261 0.166667 0.166667 0.164815 0.155404 0.15192 0.153652 0.152896 0.159156 0.161097 0.163795 0.161036 0.153937 0.15348 0.150337 0.154148 0.159717 0.164311 0.166667 0.166667 0.163617 0.15838 0.152875 0.156544 0.150928 0.15558 0.15587 0.158116 0.153312 0.14497 0.144203 0.14238 0.148951 0.157963 0.164118 0.166667 0.166667 0.163564 0.165123 0.154738 0.158007 0.146922 0.149564 0.150249 0.149223 0.144985 0.136504 0.136143 0.135751 0.143676 0.155336 0.163059 0.166667 0.166667 0.168651 0.164162 0.163823 0.154437 0.151562 0.142732 0.148198 0.140972 0.137073 0.129555 0.12897 0.130375 0.139567 0.152173 0.161731 0.166667 0.166667 0.166687 0.160953 0.164312 0.152289 0.152845 0.141306 0.14202 0.137859 0.131465 0.124585 0.125064 0.127393 0.137366 0.151337 0.162221 0.166667 0.166667 0.161461 0.163685 0.155981 0.157327 0.141714 0.142972 0.131749 0.134873 0.129683 0.124091 0.124673 0.126336 0.136097 0.149613 0.162977 0.166667 0.166667 0.156543 0.163214 0.147266 0.148229 0.142083 0.136548 0.135554 0.131226 0.130675 0.122927 0.124432 0.125663 0.134997 0.147504 0.162149 0.166667 0.166667 0.158904 0.157181 0.157435 0.147548 0.148528 0.136725 0.139339 0.134021 0.127143 0.122662 0.121743 0.120015 0.131164 0.145584 0.15717 0.166667 0.166667 0.165097 0.163143 0.163557 0.16036 0.149859 0.145777 0.138173 0.138693 0.127363 0.124593 0.120121 0.118117 0.128214 0.144119 0.154919 0.166667 0.166667 0.162883 0.159514 0.158342 0.159862 0.149659 0.144031 0.136484 0.14207 0.125932 0.128816 0.123934 0.124382 0.130431 0.146725 0.155812 0.166667 0.166667 0.159436 0.156971 0.15612 0.152313 0.1483 0.128172 0.138796 0.126887 0.132145 0.124799 0.126516 0.128523 0.132435 0.14702 0.156668 0.166667 0.166667 0.167122 0.161494 0.167151 0.156365 0.162139 0.122923 0.15285 0.13016 0.140717 0.126792 0.133481 0.13612 0.138162 0.150203 0.157585 0.166667 0.166667 0.162318 0.160673 0.175485 0.159001 0.179607 0.147994 0.143892 0.16016 0.131913 0.15762 0.133446 0.152712 0.14883 0.159482 0.163114 0.166667 0.166667 0.159451 0.171863 0.176963 0.175799 0.174692 0.179896 0.129661 0.178778 0.137088 0.16709 0.141328 0.158933 0.154838 0.159056 0.16327 0.166667 0.166667 0.159505 0.168728 0.170481 0.173649 0.166112 0.183893 0.145255 0.172194 0.158068 0.167632 0.158254 0.160263 0.161461 0.158186 0.159987 0.166667 0.166667 0.165658 0.153693 0.166871 0.159743 0.162879 0.178098 0.163106 0.17334 0.168134 0.1772 0.165059 0.167665 0.161917 0.15863 0.15624 0.166667 0.166667 0.152582 0.145762 0.143643 0.145796 0.150767 0.158994 0.163256 0.163905 0.160704 0.159697 0.16171 0.155921 0.164648 0.161521 0.159292 0.166667 0.166667 0.160587 0.151514 0.147969 0.148267 0.150063 0.155568 0.157829 0.156176 0.152343 0.149281 0.151894 0.150277 0.159195 0.162354 0.163231 0.166667 0.166667 0.161361 0.153123 0.148961 0.147002 0.146051 0.148399 0.150856 0.145974 0.141666 0.138297 0.141815 0.143108 0.154295 0.160682 0.164684 0.166667 0.166667 0.16158 0.153849 0.150907 0.143767 0.143104 0.139428 0.14144 0.135307 0.130273 0.127058 0.130118 0.13428 0.147509 0.156264 0.162912 0.166667 0.166667 0.16879 0.156687 0.158677 0.1422 0.140343 0.13449 0.131817 0.126309 0.120172 0.116286 0.119966 0.126816 0.140697 0.152294 0.161191 0.166667 0.166667 0.168644 0.160214 0.156017 0.149397 0.135004 0.13208 0.126052 0.117482 0.112278 0.108785 0.112601 0.120702 0.137049 0.149275 0.159431 0.166667 0.166667 0.163557 0.1645 0.153365 0.148407 0.134143 0.125643 0.124238 0.115504 0.106131 0.105053 0.107525 0.116548 0.133938 0.148957 0.159831 0.166667 0.166667 0.168966 0.162404 0.154845 0.142933 0.135804 0.12042 0.119786 0.115244 0.106209 0.108619 0.108385 0.116772 0.133052 0.150889 0.161389 0.166667 0.166667 0.165206 0.156704 0.151023 0.143053 0.127351 0.128904 0.108618 0.121245 0.108696 0.108883 0.113581 0.118158 0.133563 0.149239 0.162267 0.166667 0.166667 0.164249 0.165293 0.151264 0.155674 0.122096 0.135939 0.107585 0.121058 0.107247 0.107781 0.111398 0.116867 0.131248 0.14639 0.159469 0.166667 0.166667 0.166136 0.167578 0.154247 0.160808 0.126834 0.129902 0.116464 0.116377 0.109392 0.105219 0.105895 0.113837 0.12784 0.142827 0.155248 0.166667 0.166667 0.163082 0.164997 0.153008 0.15165 0.134587 0.109506 0.131233 0.113909 0.116649 0.108086 0.112446 0.117393 0.129892 0.145076 0.156142 0.166667 0.166667 0.164895 0.161968 0.162989 0.140742 0.155198 0.118276 0.12978 0.129966 0.118659 0.121921 0.119564 0.12372 0.134249 0.146122 0.157676 0.166667 0.166667 0.174685 0.168189 0.174966 0.163326 0.152069 0.15635 0.1231 0.160261 0.12322 0.137304 0.1264 0.13203 0.139061 0.145746 0.155079 0.166667 0.166667 0.172534 0.180462 0.172285 0.18409 0.153576 0.157789 0.14143 0.155759 0.152969 0.140438 0.142458 0.144541 0.150481 0.154774 0.159035 0.166667 0.166667 0.160732 0.173264 0.16231 0.172995 0.17008 0.150706 0.166676 0.148319 0.181364 0.153757 0.160603 0.158036 0.162478 0.162046 0.162195 0.166667 0.166667 0.146177 0.153748 0.156605 0.159463 0.173974 0.153935 0.182885 0.155942 0.186431 0.181467 0.161901 0.169045 0.161492 0.157458 0.155453 0.166667 0.166667 0.1544 0.147191 0.142281 0.144723 0.150014 0.153095 0.158742 0.160052 0.157998 0.158458 0.16101 0.164028 0.164916 0.160728 0.159657 0.166667 0.166667 0.161382 0.151714 0.146535 0.14617 0.148454 0.148431 0.15107 0.149412 0.145947 0.147161 0.151216 0.153892 0.161984 0.160893 0.163832 0.166667 0.166667 0.162974 0.154936 0.149247 0.1444 0.14502 0.141148 0.140246 0.136496 0.133339 0.134177 0.138867 0.144961 0.156188 0.159413 0.164245 0.166667 0.166667 0.159674 0.152434 0.146085 0.140113 0.134242 0.131069 0.127227 0.124181 0.120186 0.121404 0.128519 0.137503 0.150301 0.157343 0.164238 0.166667 0.166667 0.158504 0.152019 0.140937 0.136805 0.123456 0.120612 0.116745 0.112344 0.107831 0.110385 0.118358 0.12967 0.14528 0.155115 0.163677 0.166667 0.166667 0.161233 0.157566 0.139312 0.136105 0.121853 0.113115 0.10736 0.103081 0.0966682 0.0983345 0.108444 0.12238 0.138031 0.152019 0.162091 0.166667 0.166667 0.16047 0.16093 0.143324 0.135576 0.122143 0.113364 0.101554 0.0954221 0.0874591 0.0916822 0.100533 0.117416 0.134438 0.14964 0.160637 0.166667 0.166667 0.163453 0.155958 0.149272 0.131107 0.121466 0.107908 0.0994603 0.0922263 0.0880476 0.0876925 0.0974907 0.11333 0.133725 0.147758 0.158158 0.166667 0.166667 0.16339 0.153397 0.148826 0.129737 0.117913 0.103195 0.101137 0.0872968 0.0918435 0.0886496 0.0973522 0.111397 0.132633 0.149145 0.158244 0.166667 0.166667 0.157584 0.15148 0.143354 0.129493 0.115322 0.0970923 0.096707 0.0857256 0.089185 0.0923107 0.0980729 0.113262 0.131875 0.149353 0.160904 0.166667 0.166667 0.154894 0.148626 0.14179 0.125449 0.11652 0.0928489 0.103504 0.0890554 0.0840714 0.0978052 0.101264 0.117221 0.13277 0.149416 0.16293 0.166667 0.166667 0.154478 0.146522 0.139419 0.122704 0.113245 0.0952701 0.106773 0.101412 0.0930962 0.103585 0.10857 0.121309 0.136096 0.149322 0.161412 0.166667 0.166667 0.155073 0.150879 0.133756 0.133496 0.113717 0.104047 0.108886 0.118523 0.104813 0.114892 0.120001 0.129223 0.142825 0.154814 0.16166 0.166667 0.166667 0.154997 0.156216 0.131496 0.144667 0.133034 0.117391 0.113812 0.127959 0.119175 0.127187 0.127611 0.139156 0.146711 0.158665 0.162609 0.166667 0.166667 0.166106 0.165276 0.154697 0.153519 0.141606 0.137172 0.125013 0.136434 0.133913 0.130144 0.135641 0.13989 0.1453 0.152988 0.157245 0.166667 0.166667 0.178012 0.162586 0.173514 0.172866 0.142907 0.149715 0.145713 0.147319 0.153733 0.141649 0.143868 0.148153 0.147327 0.150334 0.154159 0.166667 0.166667 0.177899 0.154022 0.164438 0.186387 0.15332 0.151329 0.167474 0.161992 0.161289 0.163875 0.151494 0.160236 0.153562 0.155537 0.155778 0.166667 0.166667 0.155035 0.148286 0.142084 0.14742 0.149823 0.153378 0.159094 0.161845 0.158808 0.160885 0.165596 0.160997 0.16443 0.159392 0.159497 0.166667 0.166667 0.160246 0.151457 0.145869 0.1464 0.146971 0.145582 0.147816 0.148122 0.147326 0.148965 0.154671 0.156642 0.161261 0.161922 0.163353 0.166667 0.166667 0.162733 0.154196 0.145584 0.144857 0.138494 0.137248 0.134398 0.133332 0.131476 0.133125 0.140964 0.147892 0.155172 0.159564 0.163779 0.166667 0.166667 0.164299 0.157571 0.147703 0.142495 0.132757 0.127236 0.122667 0.11567 0.113451 0.117129 0.125169 0.13602 0.147159 0.155137 0.162493 0.166667 0.166667 0.166521 0.157166 0.149037 0.136597 0.122872 0.115578 0.106822 0.10027 0.0983146 0.102111 0.113961 0.129185 0.142133 0.153022 0.161622 0.166667 0.166667 0.167411 0.154099 0.14379 0.129427 0.111309 0.10308 0.0940911 0.0850591 0.0843675 0.0909049 0.10458 0.12182 0.139298 0.151104 0.159769 0.166667 0.166667 0.164435 0.153648 0.140385 0.129885 0.108679 0.0962634 0.0849778 0.0722383 0.0732124 0.0790584 0.095318 0.113917 0.134339 0.148983 0.158286 0.166667 0.166667 0.161784 0.155431 0.139092 0.125552 0.110523 0.0920012 0.0823606 0.0656969 0.0664556 0.0738615 0.0891881 0.110486 0.129905 0.147005 0.159925 0.166667 0.166667 0.162183 0.154811 0.140845 0.123259 0.105729 0.0930502 0.0766801 0.0656871 0.0592092 0.0684824 0.0852572 0.107097 0.128586 0.144305 0.159842 0.166667 0.166667 0.162717 0.154204 0.140827 0.126837 0.0984572 0.098148 0.0704535 0.0713171 0.0558924 0.068693 0.0856148 0.10542 0.128427 0.144376 0.156855 0.166667 0.166667 0.163704 0.154732 0.137354 0.13275 0.0966973 0.100039 0.081772 0.0670017 0.0706672 0.0719277 0.0902967 0.108789 0.127169 0.146572 0.154882 0.166667 0.166667 0.16183 0.156262 0.133005 0.12918 0.106031 0.0956843 0.103914 0.0644212 0.0889353 0.0799039 0.100423 0.11687 0.1313 0.149269 0.157381 0.166667 0.166667 0.161958 0.155471 0.142566 0.125731 0.121263 0.091314 0.115029 0.0880204 0.100592 0.0975933 0.108185 0.124752 0.137411 0.148955 0.159078 0.166667 0.166667 0.163164 0.149723 0.154861 0.140312 0.12662 0.114576 0.103077 0.127583 0.109622 0.118437 0.122156 0.136019 0.144835 0.153619 0.161509 0.166667 0.166667 0.160348 0.151686 0.147671 0.153302 0.125622 0.140894 0.111415 0.131632 0.13972 0.133077 0.139598 0.148755 0.152267 0.156863 0.162073 0.166667 0.166667 0.155025 0.154104 0.146547 0.160355 0.133611 0.148587 0.150289 0.136685 0.156172 0.149709 0.148916 0.155051 0.153919 0.157452 0.161051 0.166667 0.166667 0.148785 0.157919 0.156719 0.168769 0.159195 0.160613 0.173099 0.164201 0.155976 0.168552 0.158287 0.163359 0.155966 0.15864 0.159443 0.166667 0.166667 0.154689 0.149698 0.14321 0.144029 0.145838 0.149022 0.158995 0.161443 0.158049 0.162184 0.164086 0.163178 0.162435 0.159474 0.159593 0.166667 0.166667 0.161834 0.151944 0.147208 0.142962 0.139819 0.143704 0.145562 0.148851 0.142939 0.150579 0.153876 0.155037 0.160435 0.159702 0.163281 0.166667 0.166667 0.161327 0.151694 0.141928 0.139461 0.130653 0.13254 0.132236 0.131053 0.126829 0.134605 0.141965 0.146518 0.155082 0.158755 0.163323 0.166667 0.166667 0.160033 0.151918 0.13982 0.13386 0.123087 0.119926 0.114821 0.113484 0.109566 0.116848 0.128665 0.137833 0.148726 0.156912 0.161737 0.166667 0.166667 0.161781 0.152698 0.141401 0.128715 0.116495 0.107571 0.099528 0.0937155 0.0896979 0.102029 0.115062 0.127382 0.142044 0.15356 0.160977 0.166667 0.166667 0.162837 0.151842 0.139422 0.12179 0.108152 0.0947744 0.0825959 0.0739503 0.0749566 0.0852274 0.105136 0.121846 0.137193 0.150705 0.162682 0.166667 0.166667 0.158066 0.151043 0.136133 0.117516 0.10129 0.0833926 0.0684357 0.0580302 0.0600124 0.0742356 0.0954147 0.117614 0.136154 0.147939 0.162105 0.166667 0.166667 0.158411 0.149698 0.136329 0.11651 0.0964723 0.0792003 0.0583891 0.0500149 0.0470935 0.0650377 0.0864832 0.110239 0.132739 0.147232 0.158083 0.166667 0.166667 0.159676 0.147635 0.135778 0.115578 0.0956417 0.0776378 0.053982 0.0388035 0.039273 0.0578288 0.082606 0.105075 0.127948 0.146613 0.155357 0.166667 0.166667 0.157555 0.145654 0.13085 0.113771 0.0906057 0.0761526 0.0561587 0.0377571 0.0392953 0.057825 0.0844109 0.106781 0.127119 0.145401 0.157897 0.166667 0.166667 0.158486 0.147863 0.131228 0.11656 0.0936574 0.0787907 0.0701133 0.0422682 0.0528066 0.0621443 0.086805 0.110085 0.128504 0.14414 0.158548 0.166667 0.166667 0.159678 0.149397 0.134568 0.11934 0.102441 0.0792491 0.0844188 0.0607467 0.0686699 0.0736987 0.0924963 0.112155 0.130605 0.143487 0.156635 0.166667 0.166667 0.162279 0.153798 0.136908 0.121679 0.114654 0.0940164 0.0859992 0.100812 0.072502 0.0933069 0.103274 0.117301 0.130965 0.14433 0.154729 0.166667 0.166667 0.162019 0.159613 0.152862 0.128447 0.1223 0.128014 0.0918592 0.124544 0.0951022 0.101185 0.114063 0.122602 0.12975 0.142258 0.151976 0.166667 0.166667 0.168473 0.159578 0.169284 0.143386 0.136754 0.141769 0.116353 0.127704 0.131273 0.111121 0.129534 0.132911 0.136232 0.14449 0.153478 0.166667 0.166667 0.173459 0.157993 0.157607 0.148403 0.154144 0.151718 0.140101 0.145469 0.144386 0.140108 0.146624 0.152477 0.149804 0.153187 0.157691 0.166667 0.166667 0.168459 0.169373 0.146342 0.153093 0.1732 0.159671 0.147738 0.16739 0.151187 0.159083 0.158664 0.166347 0.159449 0.159907 0.159882 0.166667 0.166667 0.159102 0.150392 0.147568 0.139056 0.141383 0.152051 0.157798 0.161275 0.157077 0.167591 0.165518 0.160917 0.163344 0.159478 0.160267 0.166667 0.166667 0.162183 0.153592 0.144132 0.14017 0.134574 0.143421 0.146741 0.146457 0.144587 0.151034 0.155979 0.15668 0.159529 0.161651 0.163176 0.166667 0.166667 0.161853 0.153788 0.142144 0.134959 0.129061 0.129617 0.13068 0.129754 0.126102 0.135216 0.14304 0.147873 0.154373 0.160208 0.16472 0.166667 0.166667 0.162321 0.15169 0.141478 0.12891 0.121549 0.114815 0.113366 0.108439 0.1073 0.119666 0.128839 0.137326 0.147404 0.154753 0.164135 0.166667 0.166667 0.160028 0.149142 0.136979 0.122351 0.111144 0.0995459 0.0926787 0.0890255 0.0911844 0.100356 0.116636 0.128254 0.141161 0.149953 0.160662 0.166667 0.166667 0.16046 0.150218 0.133363 0.118244 0.102987 0.0852967 0.0770815 0.0654883 0.0717082 0.0861348 0.101744 0.118167 0.135894 0.148493 0.157266 0.166667 0.166667 0.164467 0.154501 0.136653 0.118731 0.100276 0.0784551 0.0591028 0.0489095 0.0511908 0.0699136 0.0924397 0.111876 0.129246 0.148062 0.157242 0.166667 0.166667 0.16343 0.153722 0.136935 0.116175 0.0956735 0.0740021 0.0502049 0.0294477 0.0342925 0.0584826 0.0861295 0.111045 0.128595 0.146052 0.160619 0.166667 0.166667 0.161916 0.151275 0.136977 0.117108 0.0920876 0.0695799 0.0453278 0.0119954 0.024534 0.0514991 0.0791565 0.105893 0.127317 0.141695 0.160063 0.166667 0.166667 0.16315 0.152094 0.135765 0.11969 0.0925556 0.0718931 0.0457488 0.025063 0.0262056 0.050889 0.0784393 0.101006 0.123728 0.140597 0.155279 0.166667 0.166667 0.162167 0.151355 0.132614 0.118464 0.0944234 0.0687148 0.0592375 0.0378088 0.0483757 0.061085 0.0851061 0.106681 0.123161 0.143084 0.155312 0.166667 0.166667 0.163179 0.153724 0.135877 0.118856 0.104588 0.0735883 0.0766868 0.0639023 0.0623855 0.07