# vtk DataFile Version 5.1
vtk output
ASCII

DATASET UNSTRUCTURED_GRID
POINTS 7842 float
-0.247662 0.469132 -0.104046
-0.151514 0.575504 0.0425868
-0.0794264 0.607071 -0.142448
-0.205475 0.519147 -0.0565532
-0.173836 0.5549 -0.00746811
-0.189921 0.526085 -0.119805
-0.127908 0.599698 -0.0346256
-0.134474 0.572155 -0.133282
-0.103171 0.612442 -0.0949123
-0.155301 0.570139 -0.0764066
-0.065206 0.537884 -0.0914698
-0.0643402 0.567679 -0.113403
-0.0667101 0.591852 -0.129522
-0.555185 0.170954 0.0768021
-0.625388 0.152224 0.0771692
-0.652851 0.239069 0.0998666
-0.619129 0.271668 -0.0490768
-0.587677 0.162028 0.0818168
-0.608494 0.157218 0.080416
-0.592609 0.20065 0.0746728
-0.631426 0.184363 0.0748471
-0.628204 0.219598 0.0904746
-0.642503 0.211605 0.0846302
-0.581688 0.20533 0.0380098
-0.610003 0.200562 0.0405946
-0.643856 0.242141 0.0518767
-0.600311 0.247396 -0.00569198
-0.608898 0.242152 -0.000378303
-0.632306 0.257625 0.00503344
-0.615466 0.191542 0.0786002
-0.599372 0.203727 0.0412567
-0.608076 0.231233 0.0382962
-0.627801 0.221998 0.0424161
-0.565316 0.252251 -0.0137706
-0.628606 0.242051 0.0757254
-0.596323 0.248718 0.0327319
-0.561044 0.217953 0.0220018
-0.555846 0.192207 0.0510156
-0.594018 0.22509 0.0575663
-0.586375 0.264565 -0.0230753
-0.60242 0.273319 -0.0345595
-0.584008 0.230799 0.0108454
-0.617708 0.254572 0.0231626
-0.355454 0.0476602 -0.329261
-0.374061 0.0595533 -0.350982
-0.313387 0.115877 -0.227977
-0.341942 0.057947 -0.429596
-0.362237 0.0529421 -0.337326
-0.36936 0.0551759 -0.347552
-0.342246 0.0632801 -0.284024
-0.358941 0.0764458 -0.306012
-0.331432 0.0871075 -0.246983
-0.338932 0.0958776 -0.261653
-0.350987 0.0526812 -0.365045
-0.356629 0.0657192 -0.389345
-0.314856 0.0734107 -0.270946
-0.348309 0.0532616 -0.406392
-0.351197 0.0613664 -0.416387
-0.325904 0.0482815 -0.341176
-0.350674 0.0702352 -0.295805
-0.354714 0.0598706 -0.380728
-0.335761 0.0571414 -0.316287
-0.338807 0.0654254 -0.327581
-0.304884 0.102615 -0.182326
-0.343431 0.0362185 -0.404716
-0.297792 0.10957 -0.200396
-0.304623 0.108785 -0.215544
-0.312382 0.0677612 -0.224034
-0.313177 0.0692688 -0.258375
-0.327196 0.035841 -0.317998
-0.326244 0.0381262 -0.321684
-0.319779 0.0743292 -0.214067
-0.347186 0.0396851 -0.381552
-0.338346 0.0528086 -0.278716
-0.34946 0.0431514 -0.351945
-0.312416 0.0657347 -0.251868
-0.326169 0.0790022 -0.238663
-0.331085 0.0466816 -0.292152
-0.331986 0.0514991 -0.303017
-0.341206 0.0431401 -0.416263
-0.341943 0.0498939 -0.425231
-0.346627 0.0462394 -0.393025
-0.326116 0.0437525 -0.331849
-0.0334987 0.08833 -0.216785
-0.0170442 0.103683 -0.188252
0.00765186 0.153971 -0.212512
-0.0226459 0.108688 -0.208464
-0.0180053 0.110353 -0.198206
-0.0121356 0.111705 -0.216928
-0.0126596 0.109229 -0.200592
0.00190422 0.129048 -0.217719
-0.00178144 0.124121 -0.210464
-0.0104384 0.118053 -0.210323
-0.0503513 0.0731802 -0.184889
-0.0425981 0.0791414 -0.185205
-0.0281159 0.0886359 -0.187328
-0.0292632 0.0915513 -0.19791
-0.0044955 0.123028 -0.210569
-0.0176584 0.102272 -0.200082
0.000707537 0.123157 -0.211826
0.00226023 0.124747 -0.212558
0.00696179 0.135146 -0.213914
-0.0143091 0.104793 -0.205361
-0.035471 0.0852302 -0.195868
-0.011567 0.109476 -0.206704
-0.360506 0.268672 -0.133328
-0.349255 0.290945 -0.142217
-0.283005 0.181444 -0.164034
-0.359706 0.278969 -0.135163
-0.351468 0.280192 -0.141546
-0.330646 0.249555 -0.145218
-0.322435 0.252594 -0.160248
-0.301385 0.211895 -0.159109
-0.302325 0.221137 -0.16873
-0.314311 0.213783 -0.170064
-0.299585 0.204871 -0.188272
-0.278447 0.142371 -0.188202
-0.292749 0.144245 -0.206112
-0.274765 0.139361 -0.216327
-0.28817 0.118732 -0.214921
-0.324191 0.249925 -0.154339
-0.308212 0.210307 -0.178459
-0.292954 0.178247 -0.18139
-0.285902 0.175081 -0.189017
-0.296593 0.173777 -0.15956
-0.292446 0.174222 -0.159658
-0.288131 0.174917 -0.161977
-0.295241 0.148149 -0.168694
-0.284357 0.154718 -0.176217
-0.297416 0.12338 -0.177483
-0.288874 0.13137 -0.183986
-0.316817 0.213166 -0.153247
-0.295953 0.15817 -0.182637
-0.340323 0.246933 -0.142722
-0.319331 0.222898 -0.16093
-0.290131 0.148388 -0.173965
-0.311165 0.216791 -0.154173
-0.303895 0.1859 -0.167909
-0.298611 0.186984 -0.170605
-0.2949 0.159843 -0.191732
-0.286206 0.12477 -0.199479
0.033305 0.664264 -0.0144401
-0.0861109 0.625705 0.0156494
-0.0243038 0.656538 -0.000867587
0.00214314 0.661358 -0.0581187
-0.0346278 0.642193 -0.101094
-0.0604077 0.643046 -0.0472851
0.0108006 0.625279 -0.0338781
-0.0203559 0.57845 -0.0546394
-0.0242824 0.616658 -0.0800028
-0.489351 0.29477 -0.081769
-0.555227 0.310272 -0.0896661
-0.453825 0.250085 -0.138727
-0.511646 0.301307 -0.0883697
-0.531796 0.306354 -0.0912943
-0.447916 0.28996 -0.11811
-0.500085 0.299326 -0.118302
-0.391371 0.291069 -0.135082
-0.425974 0.297417 -0.135616
-0.494345 0.270302 -0.10652
-0.534335 0.284102 -0.113319
-0.367789 0.272757 -0.150867
-0.472495 0.256176 -0.125097
-0.498228 0.263371 -0.127571
-0.400412 0.260467 -0.147827
-0.468085 0.296645 -0.120811
-0.512081 0.27665 -0.110359
-0.436085 0.273766 -0.132341
-0.460033 0.279837 -0.135578
-0.426309 0.24002 -0.130235
-0.377547 0.263403 -0.133097
-0.363876 0.273625 -0.144321
-0.39755 0.255753 -0.13175
-0.392315 0.263809 -0.135259
-0.395145 0.282093 -0.120882
-0.448182 0.256259 -0.11387
-0.445299 0.290188 -0.105064
-0.475768 0.270918 -0.0964638
-0.373171 0.270557 -0.136991
-0.400595 0.288868 -0.126817
-0.420684 0.272412 -0.11844
-0.416479 0.277 -0.127015
-0.436923 0.244147 -0.132762
-0.439766 0.246727 -0.139273
-0.467179 0.259801 -0.116972
-0.400795 0.261376 -0.140662
-0.0959993 0.0709299 0.195125
-0.106697 0.0481324 0.21231
-0.01015 0.157199 0.291293
-0.0635311 0.111949 0.171547
-0.0981375 0.0635921 0.200539
-0.100814 0.0551554 0.20538
-0.0660519 0.0817694 0.22784
-0.0843486 0.0632211 0.238623
-0.0412103 0.111491 0.260842
-0.0579885 0.099492 0.262041
-0.0858127 0.082274 0.192629
-0.0898395 0.0776431 0.213123
-0.0114422 0.151391 0.272677
-0.0720407 0.0965461 0.182548
-0.0703387 0.0988124 0.19982
-0.0217657 0.128669 0.227857
-0.0744856 0.0733723 0.233002
-0.0877766 0.0812848 0.203941
-0.0429188 0.10795 0.227711
-0.0558271 0.105781 0.239218
0.00501881 0.128957 0.266885
-0.0527148 0.100597 0.140397
-0.00164065 0.13981 0.273286
-0.00694224 0.145886 0.28029
-0.00521412 0.111892 0.244003
-0.00797685 0.13747 0.263739
-0.0274626 0.0939654 0.196745
-0.0220526 0.106628 0.210125
-0.0339483 0.0995458 0.242691
-0.0655922 0.085376 0.177297
-0.0663723 0.0770665 0.213456
-0.0823362 0.0756363 0.191519
-0.00702549 0.123662 0.249774
-0.0389496 0.103286 0.249556
-0.0447412 0.0896455 0.217171
-0.0395773 0.101181 0.229642
-0.0551646 0.105734 0.157448
-0.0578478 0.107714 0.165146
-0.0703774 0.0900853 0.181589
-0.0212924 0.117165 0.219025
-0.228317 0.13016 -0.0656976
-0.232147 0.118698 -0.09618
0.00358886 0.0374358 -0.248379
-0.103136 -0.0388907 -0.165116
-0.232683 0.124523 -0.0737529
-0.230973 0.118935 -0.0850177
-0.172231 0.0542193 -0.125096
-0.160836 0.047094 -0.149008
-0.0774759 0.0158944 -0.197822
-0.0803214 0.00685355 -0.206358
-0.207206 0.070691 -0.0873374
-0.193246 0.0506688 -0.117913
-0.0170135 0.00706337 -0.220729
-0.158852 0.00572482 -0.125542
-0.150778 -0.00104665 -0.14005
-0.0541726 -0.0190102 -0.193552
-0.164232 0.0492344 -0.138312
-0.199618 0.0572871 -0.103786
-0.118412 0.00605538 -0.160238
-0.110632 0.00268964 -0.173831
-0.0126116 0.0266561 -0.21686
-0.145704 0.000542062 -0.121549
-0.0100103 0.0295736 -0.225964
0.000307283 0.0356029 -0.239905
-0.0563137 0.00587094 -0.188301
-0.0280848 0.0112299 -0.212235
-0.102485 -0.00376962 -0.154643
-0.0893848 -0.00678867 -0.166857
-0.0964055 0.0201949 -0.170975
-0.179943 0.0431987 -0.100385
-0.176998 0.059463 -0.111229
-0.207958 0.0869657 -0.0787073
-0.045119 0.00836899 -0.198652
-0.0949512 0.0202481 -0.178258
-0.141308 0.0265193 -0.134418
-0.12443 0.0153828 -0.152975
-0.13737 -0.00851026 -0.134287
-0.115184 -0.0270618 -0.154227
-0.172885 0.0278903 -0.111988
-0.0680736 -0.0124625 -0.183078
-0.340858 0.0904643 -0.449214
-0.356869 0.0574531 -0.392493
-0.361048 0.0824414 -0.414673
-0.350035 0.0717676 -0.440673
-0.362542 0.0735095 -0.44177
-0.366414 0.0893267 -0.447816
-0.348654 0.0838253 -0.447698
-0.361556 0.0677582 -0.405056
-0.357287 0.0643416 -0.426266
-0.359675 0.078308 -0.437335
-0.350474 0.051991 -0.434756
-0.352145 0.0725442 -0.449345
-0.349467 0.0617409 -0.44016
-0.355975 0.0547603 -0.417725
-0.354166 0.0580317 -0.450914
-0.352545 0.0698631 -0.451271
-0.348609 0.0802619 -0.451968
-0.360826 0.0547818 -0.421648
-0.356093 0.0497293 -0.376926
-0.353288 0.0507205 -0.44202
-0.350635 0.0432846 -0.427645
-0.361725 0.0621213 -0.427981
-0.353188 0.0603434 -0.444884
-0.354886 0.0469157 -0.403829
-0.559162 0.268119 0.0701924
-0.599283 0.304067 0.106325
-0.492918 0.204505 0.200259
-0.504377 0.278252 0.131914
-0.580486 0.278509 0.0978817
-0.591705 0.289719 0.109533
-0.565279 0.240207 0.135311
-0.595755 0.272174 0.162708
-0.540167 0.216789 0.178327
-0.5568 0.233192 0.193913
-0.538368 0.279394 0.104401
-0.578911 0.313492 0.135332
-0.516529 0.246538 0.194638
-0.521369 0.286045 0.121602
-0.546134 0.306417 0.147053
-0.528584 0.27369 0.164891
-0.580023 0.256564 0.153829
-0.559372 0.29484 0.128867
-0.542172 0.255078 0.148303
-0.566421 0.279835 0.176019
-0.475494 0.25395 0.0833163
-0.480942 0.266207 0.103127
-0.500477 0.276364 0.116989
-0.512383 0.246124 0.081297
-0.538774 0.251472 0.0808053
-0.517899 0.267728 0.102396
-0.311422 -0.00912909 -0.279419
-0.292291 -0.0169597 -0.302006
-0.279746 0.0228249 -0.457365
-0.318239 0.047174 -0.470631
-0.304069 -0.00741858 -0.283404
-0.298063 -0.0120729 -0.298062
-0.307005 -0.0121901 -0.334792
-0.292799 -0.00560109 -0.362237
-0.297644 0.00274192 -0.413002
-0.293309 0.00713204 -0.41968
-0.310791 -0.000828983 -0.349783
-0.30028 0.00687301 -0.364264
-0.284609 0.0327486 -0.472139
-0.31315 0.0256511 -0.429351
-0.310171 0.027786 -0.424362
-0.29785 0.0394539 -0.476852
-0.298903 -0.00871405 -0.352737
-0.304715 0.00403818 -0.360379
-0.303928 0.0123346 -0.417241
-0.298579 0.0204637 -0.426202
[...]
POINT_DATA 7842
SCALARS Norm_u float 1
LOOKUP_TABLE default
0.221543 0.182941 0.183177 0.202055 0.189819 0.20077 0.202305 0.190112 0.201138 0.200034 0.150771 0.162595 0.173026 0.452437 0.489453 0.462823 0.48068 0.466621 0.477972 0.457713 0.475687 0.462602 0.469176 0.462788 0.471775 0.474341 0.467199 0.466765 0.475237 0.465642 0.46695 0.466583 0.472317 0.464008 0.46707 0.463931 0.459517 0.455965 0.460002 0.467915 0.473028 0.464078 0.469825 0.8324 0.847153 0.727473 0.863491 0.835515 0.842248 0.80111 0.813937 0.764596 0.773257 0.844628 0.850519 0.792003 0.858121 0.859874 0.843212 0.807211 0.848216 0.824325 0.827857 0.694126 0.859156 0.704982 0.72013 0.757062 0.782378 0.829685 0.835161 0.744671 0.852782 0.799747 0.84211 0.777725 0.760933 0.810708 0.81773 0.861997 0.863392 0.855426 0.838687 0.863881 0.852961 0.821501 0.854631 0.85441 0.853747 0.853919 0.844303 0.845499 0.851096 0.853292 0.855617 0.857883 0.853523 0.841877 0.853659 0.838825 0.841565 0.836962 0.848112 0.852929 0.847669 0.494267 0.507425 0.596516 0.496956 0.507378 0.523211 0.541896 0.568211 0.566411 0.57372 0.609786 0.659667 0.673118 0.691257 0.70527 0.535041 0.589818 0.62052 0.634416 0.595484 0.598409 0.60116 0.632636 0.637735 0.666552 0.668935 0.553211 0.635046 0.515079 0.553752 0.640714 0.556601 0.59397 0.599889 0.643009 0.687715 0.212183 0.207153 0.216014 0.205554 0.194723 0.209223 0.188301 0.164036 0.181556 0.46495 0.500484 0.509069 0.480009 0.490925 0.481868 0.501173 0.492524 0.496352 0.491401 0.512723 0.520236 0.507258 0.515069 0.518475 0.490471 0.501625 0.499598 0.509974 0.49708 0.490083 0.506652 0.489257 0.494746 0.479813 0.485462 0.471478 0.475325 0.496412 0.4841 0.47968 0.487259 0.50008 0.506575 0.494376 0.507807 0.0366665 0.0228498 0.0990382 0.0587357 0.0315218 0.0255214 0.0454996 0.0243812 0.0601764 0.044143 0.046409 0.0399643 0.094383 0.0550511 0.0540167 0.0756008 0.0343719 0.0429134 0.061748 0.0521674 0.0935398 0.0559974 0.0953571 0.0959916 0.0802352 0.087313 0.0668346 0.071158 0.0640271 0.054995 0.0479248 0.045197 0.0816755 0.0607348 0.0597902 0.062838 0.0597289 0.0604514 0.0552191 0.0721071 0.660423 0.688844 0.893623 0.868303 0.668825 0.681692 0.779827 0.79955 0.872521 0.880837 0.730884 0.765575 0.892643 0.813075 0.824552 0.884518 0.791948 0.751908 0.84322 0.853779 0.887373 0.826154 0.889065 0.892039 0.87808 0.885786 0.856782 0.863009 0.854476 0.771825 0.768889 0.714176 0.880585 0.856206 0.815832 0.835199 0.833161 0.856219 0.787774 0.875013 0.859507 0.850143 0.850685 0.869015 0.860531 0.858338 0.86643 0.850895 0.860793 0.860987 0.866321 0.866521 0.867528 0.860538 0.867013 0.864024 0.862013 0.860145 0.84751 0.867329 0.863911 0.860211 0.867259 0.85725 0.451019 0.459668 0.380705 0.430271 0.456065 0.45797 0.436329 0.444099 0.411806 0.420411 0.435175 0.451931 0.398763 0.429671 0.440001 0.418783 0.439425 0.444346 0.425947 0.433742 0.404718 0.413557 0.422809 0.425012 0.435625 0.42799 0.83455 0.84482 0.826237 0.858189 0.833721 0.83999 0.843114 0.839725 0.839589 0.834029 0.846934 0.844189 0.836865 0.852675 0.849299 0.848875 0.841857 0.84539 0.845504 0.839653 0.85156 0.843291 0.836933 0.850649 0.855144 0.848941 0.842683 0.844875 0.843886 0.850565 0.396757 0.23508 0.303029 0.358546 0.303747 0.357945 0.266447 0.327898 0.290686 0.324094 0.3277 0.249979 0.279188 0.310219 0.306625 0.281708 0.812699 0.843446 0.5694 0.825091 0.838883 0.825594 0.844147 0.840729 0.844419 0.748128 0.781791 0.806021 0.657645 0.676179 0.708553 0.837685 0.762086 0.769743 0.794445 0.553217 0.761087 0.795837 0.651999 0.678354 0.826958 0.641115 0.822086 0.745907 0.766275 0.830627 0.744373 0.765786 0.562033 0.576283 0.664176 0.700253 0.160391 0.143967 0.167039 0.197635 0.152505 0.161789 0.18057 0.157115 0.166947 0.184493 0.317806 0.416755 0.238228 0.355586 0.390055 0.297019 0.374561 0.267114 0.314606 0.301559 0.378575 0.265039 0.278157 0.314692 0.260152 0.335256 0.341647 0.27825 0.326702 0.142552 0.182184 0.21016 0.200078 0.231792 0.213233 0.269337 0.232229 0.245057 0.243994 0.0648156 0.0918216 0.117887 0.0862898 0.0714883 0.0796062 0.0391329 0.0530106 0.0701059 0.0735581 0.0497982 0.0779267 0.10472 0.0644487 0.0800902 0.0906229 0.047216 0.0638602 0.0598113 0.0702862 0.606507 0.565108 0.597154 0.587597 0.691796 0.707535 0.797028 0.807578 0.597042 0.575596 0.58817 0.579402 0.701896 0.590829 0.698203 0.696338 0.742924 0.661618 0.760652 0.663403 0.571409 0.595643 0.585099 0.658004 0.155262 0.203733 0.17969 0.161298 0.171476 0.183369 0.142887 0.149502 0.15307 0.152086 0.166072 0.158603 0.0647486 0.222848 0.225061 0.154466 0.125275 0.137734 0.0962632 0.22068 0.185972 0.191751 0.144449 0.0184285 0.129661 0.0397626 0.0325065 0.180461 0.0304706 0.167817 0.0592551 0.0576747 0.0196866 0.0216625 0.0160391 0.0156989 0.0215165 0.0235814 0.0244856 0.0215363 0.0206216 0.0419881 0.0856955 0.0350323 0.0560056 0.0843163 0.305723 0.0704142 0.0874889 0.127163 0.185861 0.229081 0.252471 0.0761818 0.105469 0.271744 0.0956542 0.114286 0.209123 0.161953 0.0961115 0.167346 0.201365 0.0210318 0.039134 0.0300833 0.0280569 0.0329759 0.0395924 0.0282816 0.0356513 0.0311306 0.021473 0.0246878 0.0224175 0.0257879 0.0327039 0.0295344 0.0106325 0.00751048 0.0308871 0.0348826 0.0150838 0.0183188 0.0336477 0.015974 0.0262843 0.226546 0.123461 0.177493 0.124317 0.180608 0.0892331 0.148344 0.109067 0.138367 0.450755 0.481978 0.540847 0.58138 0.455442 0.469089 0.478108 0.487229 0.517248 0.507882 0.476631 0.497399 0.558363 0.531665 0.52715 0.575387 0.486667 0.493053 0.520065 0.522324 0.576829 0.56594 0.571267 0.518545 0.471328 0.51905 0.524287 0.556833 0.564918 0.541399 0.534288 0.541317 0.532283 0.561547 0.5509 0.555292 0.514071 0.525429 0.545835 0.512901 0.521403 0.526475 0.564919 0.534944 0.542613 0.551211 0.524772 0.528441 0.53598 0.53135 0.278897 0.275371 0.246979 0.248813 0.272334 0.190513 0.196735 0.111393 0.184621 0.139726 0.0759742 0.0569076 0.108801 0.627169 0.67308 0.612282 0.633565 0.661563 0.599861 0.648669 0.583976 0.615833 0.633962 0.666205 0.588522 0.625037 0.641202 0.601232 0.621866 0.646834 0.603768 0.629508 0.590898 0.605259 0.581265 0.598817 0.586499 0.57791 0.603275 0.623986 0.616606 0.61433 0.618779 0.624306 0.60615 0.592085 0.624156 0.60315 0.59966 0.0245827 0.0601383 0.0375524 0.0430495 0.0723548 0.0866167 0.0642831 0.108646 0.127225 0.0887686 0.0283964 0.0824825 0.0694015 0.0950695 0.0416275 0.0365113 0.0398121 0.0263412 0.072936 0.0467819 0.0273278 0.0424139 0.0452449 0.0285784 0.026824 0.0249735 0.0134544 0.0177952 0.0274091 0.0161578 0.0135528 0.00572546 0.0212725 0.0351311 0.0111143 0.0311 0.0211267 0.0146339 0.0389553 0.0577452 0.0890545 0.0421494 0.045367 0.0468147 0.0543642 0.0655012 0.0779934 0.0383585 0.0369181 0.0880645 0.0634937 0.061338 0.0881058 0.0556211 0.0403518 0.0581937 0.0633692 3.72529e-09 3.72529e-09 0.00412087 0.000726289 3.72529e-09 3.72529e-09 0.00973792 3.72529e-09 0.00962524 0.00414987 3.72529e-09 3.72529e-09 0.00691731 3.72529e-09 3.72529e-09 0.00623715 0.00239678 3.72529e-09 0.00541756 0.0050986 0.00679421 0.00731734 0.00406324 0.00734088 0.00622866 0.00707111 0.113535 0.0765582 0.0805675 0.0963747 0.098136 0.0515458 0.059269 0.0773342 0.0514787 0.0698631 0.0874886 0.0795814 0.0546682 0.0565701 0.0720425 0.0839327 0.09823 0.108087 0.068758 0.0778598 0.0499133 0.0546633 0.0827263 0.041422 0.0708996 0.05353 0.0685135 0.0875198 0.0602362 0.0629725 0.0425457 0.0673409 0.867309 0.872584 0.867262 0.872402 0.873696 0.869144 0.873742 0.8712 0.872699 0.872931 0.828434 0.840871 0.839068 0.840711 0.835062 0.821347 0.822982 0.840757 0.83981 0.830379 0.834065 0.841089 0.843704 0.833995 0.0816745 0.0495168 0.0367434 0.0616586 0.0651929 0.0413888 0.859703 0.867795 0.869632 0.868546 0.868819 0.863216 0.862562 0.868169 0.868289 0.868333 0.873279 0.866261 0.86285 0.870033 0.864679 0.868743 0.867634 0.871191 0.865572 0.867007 0.869481 0.869752 0.869622 0.86467 0.0540057 0.0730743 0.0713262 0.0766378 0.0640903 0.0635692 0.0715617 0.0510344 0.0427564 0.0610731 0.0478342 0.107218 0.116719 0.0929626 0.0921079 0.113549 0.119311 0.109661 0.0929554 0.1039 0.102569 0.111318 0.0835982 0.514277 0.492086 0.513169 0.509633 0.524355 0.477373 0.479938 0.514237 0.492634 0.49195 0.513156 0.502836 0.479381 0.500073 0.507766 0.483029 0.49433 0.509001 0.487719 0.497453 0.48728 0.475929 0.477362 0.470539 0.501045 0.496795 0.481326 0.494073 0.494946 0.505874 0.484167 0.505669 0.110402 0.114292 0.110829 0.137634 0.13714 0.150569 0.149749 0.133791 0.0992997 0.109131 0.111223 0.115162 0.126254 0.125683 0.13571 0.12495 0.143483 0.199452 0.179432 0.158364 0.194874 0.140279 0.201069 0.171961 0.180568 0.127504 0.16846 0.144649 0.442925 0.522212 0.45388 0.487223 0.441248 0.455463 0.470166 0.491796 0.458227 0.49694 0.494699 0.490407 0.467089 0.480392 0.467921 0.480223 0.46228 0.447213 0.441849 0.481542 0.507841 0.454718 0.449905 0.466928 0.442455 0.476929 0.549258 0.537348 0.535613 0.50088 0.464075 0.512917 0.482293 0.49362 0.50549 0.479121 0.848809 0.853571 0.84584 0.848702 0.840551 0.835718 0.826831 0.850729 0.844878 0.841221 0.863673 0.856751 0.853212 0.852758 0.847222 0.846063 0.845634 0.856746 0.853781 0.849942 0.852422 0.85279 0.849761 0.840098 0.118579 0.201297 0.136586 0.148945 0.177323 0.131463 0.186797 0.136278 0.155841 0.157429 0.177807 0.403857 0.332677 0.231467 0.293664 0.240275 0.336205 0.292102 0.328516 0.29336 0.515665 0.50589 0.511178 0.508456 0.548016 0.558913 0.572843 0.578962 0.519152 0.509616 0.523713 0.517028 0.552492 0.516594 0.544656 0.54955 0.569916 0.536944 0.570164 0.538984 0.514486 0.515872 0.522302 0.535085 0.100974 0.0920832 0.0697807 0.0741858 0.0900459 0.0897021 0.096673 0.0672848 0.0755908 0.0836565 0.082406 0.0592621 0.768964 0.785489 0.774351 0.776129 0.781319 0.765113 0.785264 0.771855 0.782134 0.799954 0.819502 0.802328 0.830783 0.838831 0.827357 0.776017 0.809896 0.802172 0.813009 0.792833 0.812262 0.814301 0.786772 0.790806 0.817707 0.818721 0.147151 0.164687 0.106564 0.103337 0.114769 0.107103 0.106794 0.118201 0.107475 0.116778 0.104047 0.0997762 0.106762 0.10515 0.0983212 0.141921 0.124256 0.170761 0.16113 0.134529 0 0.00438573 0.00975846 0.00855672 0.00350979 0.00839338 0.0141866 0.0128581 0 0.0085918 0.00989813 0.00257098 0.00860848 0.0120853 0.00605907 0.00892859 0.0084527 0.0049373 0.00373647 0.0110726 0.0125301 0.00935939 0.324656 0.362226 0.345418 0.360397 0.404635 0.382144 0.347036 0.372304 0.388515 0.346824 0.377308 0.430171 0.341293 0.362158 0.403245 0.355483 0.399892 0.349984 0.382846 0.350933 0.322353 0.302272 0.310203 0.331036 0.319128 0.32037 0.308667 0.257035 0.290784 0.285542 0.280178 0.26316 0.300073 0.30391 0.239313 0.242972 0.220358 0.226562 0.221794 0.254058 0.230085 0.250388 0.235529 0.173898 0.209071 0.232729 0.205441 0.232061 0.239761 0 0 0 0.00437923 0.00576108 0.00158766 0.430859 0.450966 0.415187 0.463687 0.48014 0.479668 0.440095 0.433748 0.466961 0.390438 0.429258 0.425977 0.414461 0.391205 0.439468 0.447959 0.281081 0.307163 0.320392 0.32576 0.324582 0.344776 0.331104 0.336764 0.856662 0.868618 0.86329 0.862526 0.861428 0.858305 0.860548 0.864472 0.846383 0.849016 0.852798 0.846865 0.854843 0.849281 0.853772 0.852047 0.858772 0.0551775 0.0248084 0.0248699 0.0182681 0.0394806 0.030237 0.0420503 0.0274614 0.0334131 0.0279745 0.0413315 1.49012e-08 1.49012e-08 0.0202616 1.49012e-08 1.49012e-08 0.0358704 0.0207803 0.0283943 1.49012e-08 0.0351971 0.0541426 0.0410126 0.0326714 0.043975 0.0288998 0.0494846 0.0395941 0.0431515 0.0510699 0.0477001 0.0510426 0.0384461 0.0436205 0.0459411 0.0426858 0.0408067 0.0258948 0.0384718 0.0218154 0.469377 0.487961 0.489059 0.494136 0.479196 0.472702 0.478689 0.472567 0.468069 0.458662 0.478321 0.464225 0.467388 0.467282 0.496647 0.467923 0.475898 0.471858 0.484061 0.479491 0.478366 0.48501 0.485496 0.475461 0.471317 0.484413 0.473745 0.487963 0.480913 0.469286 0.460954 0.478755 0.466712 0.475107 0.47267 0.481851 0.863931 0.860601 0.86421 0.078247 0.100665 0.147971 0 0.0846602 0.0907724 0.0902998 0.0995093 0.119041 0.114255 0.0652084 0.114717 0.1294 0.0379387 0.0891599 0.0866822 0.0952675 0.0792845 0.0919145 0.0945688 0.0302817 1.49012e-08 1.49012e-08 0.00650456 1.49012e-08 0.0247041 1.49012e-08 0.00907704 1.49012e-08 0.0186826 0 0 0.00782459 0 0 1.49012e-08 0 0.0138714 0 0.857522 0.868764 0.86391 0.864558 0.864489 0.867749 0.862157 0.857108 0.863552 0.862799 0.856977 0.866261 0.864203 0.86401 0.862723 0.86781 0.859915 0.863035 0.867972 0.870454 0.866465 0.865859 0.863192 0.866332 0.859755 0.879766 0.869327 0.911222 0.896286 0.878514 0.877172 0.884635 0.885938 0.895772 0.89794 0.884099 0.885201 0.899323 0.891216 0.894455 0.893344 0.885907 0.885759 0.888883 0.890593 0.896204 0.89961 0.904671 0.890101 0.883528 0.891314 0.139734 0.141484 0.193259 0.211615 0.200049 0.247339 0.284539 0.253048 0.184895 0.240265 0.259952 0.660248 0.665036 0.832256 0.660889 0.666996 0.704727 0.731249 0.770497 0.786945 0.747854 0.758938 0.833617 0.816824 0.817308 0.842325 0.719163 0.755341 0.793642 0.801035 0.770454 0.789504 0.81251 0.817417 0.840028 0.734936 0.690972 0.826221 0.748225 0.789902 0.808517 0.739815 0.834059 0.809732 0.805233 0.833877 0.783513 0.0802126 0 0.048327 0.0253443 0.106949 0.0527485 0.116897 0.100649 0.0894605 0.0382774 0.0936002 0.0705373 0.0813132 0.0611469 0.105205 0.0810361 0.097294 0.0968345 0.100196 0.0962478 0.109749 0.10235 0.112139 0.0947396 0.902948 0.892 0.900683 0.904136 0.897276 0.90733 0.894216 0.902151 0.901795 0.862144 0.858448 0.865743 0.906105 0.909026 0.900341 0.113556 0.147291 0.127055 0.137147 0.144391 0.155735 0.211392 0.199535 0.154858 0.171262 0.29189 0.202136 0.207797 0.276509 0.156601 0.168506 0.203765 0.212221 0.269501 0.218607 0.154213 0.126751 0.177787 0.180668 0.252902 0.527515 0.533841 0.501876 0.502856 0.533051 0.539906 0.531704 0.501633 0.717729 0.726021 0.807222 0.806847 0.706593 0.719031 0.804867 0.811919 0.725977 0.71492 0.798987 0.807202 0.796216 0.711857 0.794749 0.201361 0.103862 0.121017 0.140442 0.162061 0.178404 0.181106 0.147373 0.141519 0.173482 0.152807 0.161741 0.176238 0.189619 0.140462 0.121269 0.156225 0.133207 0.142605 0.168668 0.860289 0.854474 0.857626 0.857788 0.877751 0.876254 0.874242 0.890435 0.890241 0.890599 0.857933 0.876994 0.874955 0.87622 0.871252 0.889394 0.854385 0.860817 0.872836 0.856777 0.877023 0.887247 0.877572 0.88597 0.868784 0.887312 0.886437 0.877407 0.205123 0.202222 0.17489 0.182694 0.163378 0.201057 0.161368 0.180525 0.184114 0.141849 0.16615 0.192662 0.40962 0.452162 0.385522 0.427488 0.441169 0.400478 0.44788 0.387112 0.424053 0.407253 0.456989 0.405358 0.414897 0.448715 0.416302 0.425033 0.431568 0.401291 0.438761 0.367943 0.353991 0.352488 0.383142 0.375837 0.387104 0.384765 0.203154 0.200882 0.172097 0.633532 0.567349 0.599022 0.619804 0.600318 0.586994 0.632257 0.622279 0.623397 0.612556 0.612685 0.595348 0.58963 0.606399 0.592967 0.855333 0.852929 0.854045 0.85548 0.712933 0.756584 0.813769 0.828538 0.742435 0.721805 0.744617 0.715832 0.632071 0.625611 0.611832 0.614896 0.633758 0.62518 0.629894 0.62041 0.622617 0.611276 0.607664 0.624794 0.0967275 0.117554 0.100333 0.573043 0.617885 0.650457 0.638528 0.608071 0.654595 0.653098 0.646222 0.640199 0.649363 0.635662 0.604276 0.61375 0.720685 0.721646 0.563734 0.568731 0.621308 0.613899 0.615988 0.568242 0.661043 0.671901 0.693134 0.627043 0.604084 0.580169 0.69677 0.656025 0.662224 0.61664 0.57511 0.571348 0.374786 0.409309 0.425647 0.442672 0.366384 0.404826 0.406906 0.404335 0.642218 0.639237 0.656662 0.654874 0.642421 0.638059 0.641217 0.644635 0.659535 0.647532 0.656694 0.647259 0.216458 0.215932 0.22034 0.219109 0.21718 1.49012e-08 1.49012e-08 1.49012e-08 0 0 0 0.0864902 0.111531 0.151536 0.155948 0.165621 0.178966 0.182806 0.29252 0.319842 0.389456 0.303896 0.349719 0.300471 0.283128 0.356233 0.297709 0.345384 0.207367 0.240507 0.266555 0.234548 0.245715 0.233178 0.273084 0.267483 0.274872 0.253347 0.179042 0.200604 0.216795 0.220175 0.867813 0.859805 0.871311 0.868339 0.8642 0.881006 0.880579 0.877397 0.872107 0.883798 0.883385 0.874675 0.0231626 0.0553556 0.0460389 0.0328184 0.034732 0.0478919 0.0298957 0.0530164 0.0373673 0.0323177 0.0203946 0.0583374 0.024178 0.0294933 0.04665 0.0271974 0.034373 0.0417343 0.0201433 0.0381265 0.0275022 0.0357125 0.0399229 0.0261833 0.02096 0.0334653 0.0305226 0.0258849 0.0351385 0.0194341 0.0238437 0.0265295 0.0304105 0.0181162 0.017086 0.0156042 0.0238426 0.0204699 0.0177899 0.0258736 0.00175744 3.72529e-09 0 0.0286611 3.72529e-09 3.72529e-09 0.00210255 3.72529e-09 0.00310888 0 0.00311252 3.72529e-09 3.72529e-09 0.0108547 0 3.72529e-09 3.72529e-09 3.72529e-09 3.72529e-09 3.72529e-09 0.0162558 0.0108052 0.00555764 0.00907016 0.0171519 0.0121741 0.00870756 0.0030504 0.0069934 0.00802733 0.0501469 0.0404214 0.0355643 0.0247704 0.00756975 0.0326758 0.0145823 0.0171517 0.0221342 0.0131947 0.834158 0.839398 0.749886 0.758543 0.854843 0.855822 0.723471 0.84843 0.848176 0.80748 0.835996 0.855628 0.819326 0.826926 0.700865 0.796291 0.733403 0.828162 0.713879 0.748002 0.808895 0.840149 0.85213 0.772448 0.689465 0.844463 0.777222 0.794301 0.579405 0.604077 0.599993 0.609304 0.595747 0.698899 0.724044 0.582412 0.568552 0.677581 0.704264 0.592824 0.361285 0.332672 0.342248 0.379786 0.449554 0.452563 0.453305 0.427704 0.435449 0.409291 0.416591 0.429958 0.397872 0.395323 0.42076 0.0108685 0.012775 0 0.011737 0 0.026023 0.0335753 0.00601087 0.0159773 3.72529e-09 0.026174 0.0224326 0.0190397 0.0359643 0.0273619 0.0465903 0.0406946 0.0165336 0.0146312 0.0322939 0.0149555 0.0257886 0.0201305 0.0368292 0.898538 0.885727 0.885186 0.897467 0.893824 0.895496 0.897622 0.885726 0.892244 0.894335 0.890296 0.894549 0.89104 0.887797 0.884224 0.888291 0.891826 0.89532 0.889455 0.894453 1.49012e-08 1.49012e-08 0.0628282 0.0985534 1.49012e-08 0.115679 1.49012e-08 0.0819689 0.0735981 0.864126 0.870545 0.86685 0.867823 0.867072 0.854588 0.854129 0.855917 0.0261942 0.0502819 0.0169775 0.0480881 0.0286093 0.0327399 0.0236692 0.0486905 0.0211901 0.0302696 0.0325045 0.0283577 0.0322117 0.0424449 0.0321429 0.0453754 0.0265691 0.0276907 0.0335582 0.023489 0.0286331 0.0243995 0.0192446 0.0353014 0.0461636 0.0250995 0.0220595 0.0356348 0.0238833 0.0348409 0.0389352 0.0462041 0.0492114 0.0370636 0.0307014 0.0325696 0.0300531 0.0412494 0.0412449 0.0300526 0.897413 0.893111 0.889112 0.900967 0.902006 0.900389 0.893356 0.89632 0.892061 0.900325 0.902361 0.903198 0.903572 0.907773 0.909184 0.900381 0.904117 0.901453 0.902598 0.894556 0.895503 0.899375 0.0116323 2.32831e-10 1.49012e-08 0 0.00527659 0 0.0188552 0 0.0224851 0 0 0 0 0 0 2.32831e-10 0.00914526 0 0 0 0.0527786 0.0157722 0.0433741 0.0258455 0.0320872 0.00651484 0.0214513 0.00840675 0.0392848 0.0162355 0.0248583 0.0127908 0.0168011 0.0304049 0.0267678 0.0140104 0.00403705 0 0.00337465 0 0 0 0 0 0 0 0 0 0 0 0 0 0 0 0 0 0.0132783 0.00346836 0 0.00998915 0.00682336 0.00320488 1.49012e-08 0.147856 1.49012e-08 0.11688 0.0934528 0.0243248 0.0348697 0.0266021 0.0273495 0.019286 0.0257977 0.00992191 0.0140494 0.0172636 0.0194936 0.00971148 0.0120755 0.0218105 0.0184927 0.00969915 0.0147114 0.00798391 0.00693881 0.00980616 0.0137949 0.0106301 0.00942756 0.0106547 0.00857624 0.0324476 0.0266685 0.0139427 0.0201351 0.0247998 0.0323609 0.0162146 0.0147718 0.0264746 0.0237076 0.0236537 0.021863 0.0153608 0.0159247 0.0198832 0.019373 0.0379933 0.0334968 0.0329725 0.0319715 0.0250529 0.0211525 0.0148735 0.0286243 0.0216018 0.0220935 0.0279354 0.0281909 0.0271641 0.0207859 0.0132015 0.02763 0.0292711 0.021783 0.0277136 0.0208515 0.0301162 0.0555146 0.0306247 0.0554221 0.0435316 0.0233679 0.036622 0.0200605 0.019465 0.022956 0.0133838 0.0172001 1.49012e-08 1.49012e-08 1.49012e-08 1.49012e-08 1.49012e-08 0.410286 0.454276 0.481406 0.453031 0.467959 0.442822 0.466699 0.428956 0.429579 0.439561 0.417966 0.469102 0.454618 0.437371 0.449905 0.885854 0.633808 0.642357 0.778587 0.773136 0.884115 0.866013 0.648825 0.743227 0.755739 0.860422 0.814784 0.728786 0.840103 0.527319 0.583795 0.637899 0.652746 0.771453 0.711725 0.89266 0.90322 0.898327 0.907074 0.899