# vtk DataFile Version 5.1
vtk output
ASCII

DATASET UNSTRUCTURED_GRID
POINTS 7842 float
-0.0939248 0.587688 -0.1141
-0.0114816 0.601467 0.0580859
0.0650025 0.63318 -0.113014
-0.0581281 0.605375 -0.0506188
-0.0307476 0.609632 0.00675233
-0.0392575 0.605187 -0.110718
0.0278562 0.629907 -0.000950423
0.0137177 0.620297 -0.110517
0.0533775 0.640704 -0.0579198
-0.00156445 0.62401 -0.052807
0.0592926 0.551274 -0.0851873
0.0680368 0.583838 -0.0983119
0.0721494 0.611102 -0.106832
-0.451167 0.610818 -0.0206144
-0.500131 0.631544 -0.00836136
-0.476452 0.691302 0.0498066
-0.502856 0.722144 -0.0822977
-0.474524 0.617473 -0.0140134
-0.488442 0.624862 -0.0100904
-0.456904 0.645961 -0.00258469
-0.492316 0.652552 0.0109509
-0.466077 0.671203 0.0283369
-0.484375 0.672452 0.030412
-0.466031 0.647946 -0.0477708
-0.487733 0.65527 -0.0352762
-0.481398 0.698907 0.00664782
-0.480259 0.689082 -0.0672671
-0.489157 0.685936 -0.0597635
-0.49063 0.709372 -0.0371692
-0.47624 0.647832 0.00819986
-0.479392 0.652566 -0.0397651
-0.467347 0.677569 -0.0283733
-0.484826 0.67777 -0.0144263
-0.446263 0.684087 -0.0850705
-0.459837 0.692685 0.0182443
-0.450697 0.688972 -0.0336082
-0.448031 0.652559 -0.0644052
-0.447766 0.629328 -0.0432106
-0.450933 0.667072 -0.0160234
-0.465362 0.701087 -0.0824282
-0.481191 0.715199 -0.081194
-0.466501 0.670027 -0.0648433
-0.470261 0.700815 -0.031854
-0.464015 0.388699 -0.260152
-0.486449 0.372541 -0.273905
-0.380479 0.512224 -0.328001
-0.459671 0.310345 -0.225367
-0.472634 0.384503 -0.264374
-0.481062 0.377739 -0.267312
-0.435491 0.427011 -0.28163
-0.45277 0.4052 -0.293837
-0.410345 0.468411 -0.304194
-0.41546 0.453507 -0.313976
-0.463953 0.361594 -0.253532
-0.47368 0.347136 -0.260641
-0.40632 0.437299 -0.294111
-0.463764 0.332129 -0.239763
-0.464866 0.32517 -0.24491
-0.434657 0.366518 -0.25922
-0.444807 0.416215 -0.287675
-0.469498 0.352671 -0.256697
-0.438179 0.393392 -0.271369
-0.443845 0.383201 -0.276639
-0.387173 0.536981 -0.290824
-0.46364 0.332296 -0.219773
-0.38395 0.534706 -0.308575
-0.384752 0.52217 -0.31732
-0.399225 0.481492 -0.280025
-0.405083 0.450218 -0.28683
-0.433621 0.393307 -0.24826
-0.431827 0.384329 -0.253436
-0.403361 0.497537 -0.287346
-0.464318 0.349544 -0.234921
-0.434674 0.434612 -0.27145
-0.46173 0.371797 -0.249361
-0.405013 0.456375 -0.2813
-0.410837 0.476517 -0.295594
-0.431322 0.419434 -0.263318
-0.432736 0.40613 -0.267312
-0.462231 0.323 -0.220912
-0.462347 0.315986 -0.222279
-0.463367 0.34135 -0.237604
-0.433839 0.375741 -0.256644
-0.372963 0.376243 -0.208224
-0.334498 0.380289 -0.201153
-0.364546 0.337913 -0.19858
-0.358922 0.366372 -0.20635
-0.346049 0.36784 -0.204269
-0.368529 0.361143 -0.202809
-0.342602 0.369758 -0.200458
-0.364869 0.349923 -0.198867
-0.352463 0.356411 -0.19899
-0.355355 0.359703 -0.202131
-0.346324 0.407277 -0.206336
-0.342575 0.399626 -0.205886
-0.34014 0.387655 -0.202899
-0.350649 0.385854 -0.200906
-0.357738 0.359034 -0.198086
-0.3486 0.37444 -0.200198
-0.362232 0.363228 -0.194201
-0.36173 0.357353 -0.195568
-0.36325 0.346918 -0.196695
-0.357822 0.374071 -0.196717
-0.351974 0.392567 -0.200993
-0.356574 0.369593 -0.197954
-0.37506 0.658406 -0.272767
-0.385433 0.668067 -0.299226
-0.345509 0.590757 -0.297013
-0.379745 0.662717 -0.28151
-0.383566 0.662157 -0.291962
-0.364026 0.638481 -0.289272
-0.370456 0.640712 -0.304596
-0.355916 0.608009 -0.299671
-0.356218 0.613501 -0.306179
-0.375997 0.61878 -0.302583
-0.379777 0.613762 -0.323006
-0.354533 0.563041 -0.309271
-0.378307 0.559603 -0.320931
-0.3779 0.560313 -0.334075
-0.366481 0.536916 -0.319447
-0.366355 0.637764 -0.298496
-0.378857 0.615875 -0.312091
-0.366831 0.587162 -0.311153
-0.366318 0.585851 -0.319847
-0.363869 0.589044 -0.288722
-0.357459 0.588314 -0.291111
-0.352034 0.587291 -0.293696
-0.370832 0.57059 -0.29297
-0.358951 0.570908 -0.303945
-0.377864 0.551843 -0.29129
-0.371147 0.553323 -0.302924
-0.367041 0.613706 -0.288371
-0.376419 0.577276 -0.303853
-0.369776 0.639091 -0.282012
-0.373283 0.624642 -0.295464
-0.36546 0.567609 -0.298919
-0.361286 0.614233 -0.293407
-0.371886 0.596585 -0.297037
-0.365931 0.594492 -0.302666
-0.376741 0.577112 -0.311782
-0.36923 0.545606 -0.311889
0.200038 0.621401 0.0048962
0.0752112 0.627872 0.0474375
0.145753 0.634768 0.0295584
0.165938 0.638949 -0.0297557
0.12092 0.643037 -0.0688541
0.105027 0.64446 -0.0117628
0.15991 0.596776 -0.0151247
0.111959 0.567363 -0.0412784
0.121454 0.610388 -0.0559106
-0.39268 0.705236 -0.164699
-0.438302 0.754249 -0.156805
-0.434979 0.675846 -0.252898
-0.409164 0.7245 -0.165086
-0.422853 0.739403 -0.162718
-0.398531 0.702082 -0.219173
-0.418602 0.734131 -0.197723
-0.393388 0.684621 -0.266219
-0.40028 0.708117 -0.246491
-0.420507 0.699722 -0.196111
-0.440866 0.732909 -0.191404
-0.402008 0.671471 -0.291601
-0.428563 0.689837 -0.229805
-0.439307 0.707003 -0.224092
-0.417631 0.673953 -0.275982
-0.406637 0.717694 -0.213051
-0.430693 0.715063 -0.194494
-0.411877 0.691503 -0.243827
-0.420648 0.710327 -0.238019
-0.402126 0.6602 -0.236668
-0.382213 0.663262 -0.258742
-0.394262 0.666861 -0.281977
-0.389717 0.663453 -0.246554
-0.396985 0.668289 -0.257428
-0.377367 0.680865 -0.246299
-0.399792 0.673176 -0.21598
-0.385052 0.698551 -0.207029
-0.400095 0.686619 -0.18903
-0.388888 0.666449 -0.268684
-0.387078 0.686271 -0.251672
-0.387489 0.679514 -0.229583
-0.396762 0.682409 -0.243305
-0.416962 0.664536 -0.241688
-0.426117 0.669302 -0.250875
-0.417589 0.684772 -0.217964
-0.409496 0.670906 -0.266405
-0.110017 0.0713381 0.160035
-0.121782 0.0534981 0.195048
-0.0372024 0.0816466 0.231307
-0.0828593 0.140298 0.117154
-0.113642 0.0635296 0.171686
-0.115758 0.05588 0.18326
-0.0878392 0.0747395 0.187136
-0.0950925 0.0616349 0.216331
-0.0605537 0.0730173 0.21728
-0.0666381 0.0705813 0.228628
-0.104853 0.0920914 0.149604
-0.110094 0.0836261 0.178261
-0.0556941 0.0980821 0.206352
-0.0931329 0.116158 0.131866
-0.0972224 0.112917 0.152289
-0.0709664 0.118171 0.168483
-0.0907172 0.06658 0.202561
-0.10787 0.0872972 0.165123
-0.0796898 0.096682 0.177373
-0.0836284 0.0899377 0.196574
-0.039105 0.0739291 0.202999
-0.0669017 0.123498 0.0868553
-0.0398805 0.075437 0.211959
-0.0392021 0.0754425 0.221509
-0.0483337 0.0837242 0.180007
-0.0497058 0.0899376 0.20134
-0.0603208 0.0994649 0.135904
-0.0624985 0.105438 0.14836
-0.0643247 0.0763251 0.189281
-0.0891843 0.099819 0.127199
-0.0905593 0.075254 0.170481
-0.101463 0.082063 0.149552
-0.0502957 0.0886833 0.18761
-0.0649396 0.0742935 0.2011
-0.0756838 0.0857527 0.164134
-0.0740088 0.0889286 0.176472
-0.0738497 0.131376 0.101423
-0.0779491 0.134839 0.109076
-0.0924203 0.107171 0.130862
-0.0658403 0.111442 0.159335
-0.309515 0.58346 -0.238041
-0.345598 0.569279 -0.255261
-0.448007 0.37911 -0.157231
-0.385755 0.497825 -0.15977
-0.324602 0.581725 -0.242569
-0.33493 0.574575 -0.247842
-0.35043 0.518427 -0.225442
-0.37186 0.501942 -0.229249
-0.402574 0.436573 -0.19028
-0.406022 0.436911 -0.195762
-0.334966 0.556799 -0.215296
-0.362606 0.537254 -0.219645
-0.43295 0.413066 -0.160901
-0.36246 0.5225 -0.185896
-0.375099 0.515013 -0.18684
-0.411382 0.452919 -0.161687
-0.362941 0.508507 -0.225851
-0.35043 0.54608 -0.216633
-0.381835 0.484346 -0.190761
-0.392884 0.474579 -0.192954
-0.420064 0.400436 -0.159477
-0.349408 0.513241 -0.179273
-0.428284 0.394967 -0.160168
-0.440942 0.38346 -0.156517
-0.398341 0.438075 -0.17262
-0.422832 0.418624 -0.163763
-0.371873 0.478162 -0.179714
-0.385338 0.471125 -0.173799
-0.380285 0.456862 -0.194929
-0.335486 0.535497 -0.202171
-0.336829 0.527106 -0.223585
-0.3178 0.561331 -0.220186
-0.409329 0.430257 -0.16832
-0.387409 0.454021 -0.195647
-0.355863 0.499807 -0.20158
-0.372991 0.4858 -0.196226
-0.361383 0.512272 -0.174344
-0.376601 0.50136 -0.165718
-0.34856 0.53111 -0.195805
-0.401241 0.459501 -0.166977
-0.463517 0.273788 -0.236653
-0.474528 0.348471 -0.250882
-0.481952 0.329178 -0.268039
-0.460945 0.29224 -0.232345
-0.474392 0.303129 -0.243469
-0.472729 0.294421 -0.256838
-0.460811 0.279828 -0.236976
-0.479518 0.338909 -0.256015
-0.470962 0.317933 -0.243167
-0.469379 0.306627 -0.251826
-0.469581 0.310309 -0.223757
-0.467861 0.288263 -0.230649
-0.466287 0.301059 -0.227532
-0.471327 0.324945 -0.237027
-0.475276 0.296092 -0.221193
-0.471976 0.288806 -0.227086
-0.467963 0.279605 -0.230247
-0.476401 0.323623 -0.236172
-0.472777 0.359133 -0.248566
-0.473824 0.306894 -0.22067
-0.471659 0.319848 -0.219991
-0.474992 0.316905 -0.239783
-0.471169 0.299027 -0.225597
-0.472519 0.33692 -0.234958
-0.39683 0.697486 -0.000110323
-0.4065 0.74391 0.051227
-0.39873 0.620379 0.146484
-0.329722 0.689895 0.034477
-0.40123 0.716065 0.0319129
-0.403064 0.729471 0.047578
-0.403957 0.673189 0.0693717
-0.406089 0.710903 0.100911
-0.407337 0.647048 0.118363
-0.403728 0.669893 0.132648
-0.36995 0.696068 0.0235878
-0.374087 0.742854 0.0589012
-0.369006 0.657418 0.124022
-0.349804 0.697803 0.0311425
-0.348502 0.724749 0.0528711
-0.345561 0.68001 0.0870094
-0.403082 0.69242 0.0892933
-0.371699 0.721079 0.0471438
-0.373956 0.674119 0.0743907
-0.372519 0.704218 0.100656
-0.338951 0.639696 0.000798859
-0.332043 0.662118 0.0118634
-0.332235 0.678532 0.0240484
-0.36627 0.651874 0.00174393
-0.385101 0.668108 0.00599011
-0.35565 0.676607 0.0183543
-0.418569 0.417084 -0.218009
-0.404164 0.387176 -0.196929
-0.463 0.291223 -0.122244
-0.455981 0.269546 -0.173288
-0.410639 0.408177 -0.212096
-0.409498 0.394906 -0.20261
-0.428991 0.380612 -0.190663
-0.424655 0.358186 -0.172604
-0.448815 0.329499 -0.153761
-0.446758 0.325785 -0.147521
-0.432484 0.366511 -0.196722
-0.423258 0.350644 -0.188822
-0.45702 0.270063 -0.133745
-0.447939 0.307038 -0.177304
-0.440757 0.310576 -0.17956
-0.456803 0.262253 -0.15156
-0.42747 0.366122 -0.179579
-0.42825 0.356082 -0.191461
-0.446068 0.320458 -0.166044
-0.442847 0.312321 -0.16042
-0.455713 0.325866 -0.160607
-0.458587 0.31275 -0.147239
-0.461244 0.300505 -0.135518
-0.455746 0.296459 -0.159533
-0.457933 0.276179 -0.163673
-0.446667 0.349862 -0.178194
-0.434954 0.390172 -0.202485
-0.456763 0.284318 -0.14801
[...]
POINT_DATA 7842
SCALARS Norm_u float 1
LOOKUP_TABLE default
0.0582064 0.0533756 0.0433121 0.0551327 0.0538943 0.0515382 0.0504929 0.046767 0.0470759 0.050385 0.0369452 0.0389347 0.040851 0.0910724 0.0951685 0.119987 0.130759 0.0920793 0.0937695 0.103335 0.104198 0.112688 0.112469 0.104031 0.104725 0.121166 0.118939 0.116616 0.124668 0.103303 0.104563 0.114319 0.113339 0.121301 0.119993 0.11967 0.10757 0.0982155 0.111158 0.125988 0.1298 0.112827 0.122722 0.510559 0.553487 0.355802 0.659459 0.523165 0.539729 0.446194 0.49444 0.392053 0.424925 0.561616 0.595976 0.43568 0.616557 0.632384 0.545012 0.470359 0.582274 0.501698 0.523804 0.274836 0.610843 0.302122 0.32918 0.350031 0.408716 0.493236 0.508411 0.329096 0.579474 0.427845 0.53927 0.394335 0.371404 0.450907 0.476145 0.63066 0.646517 0.596898 0.526437 0.654984 0.640811 0.715194 0.669171 0.664484 0.681502 0.660793 0.699807 0.684797 0.680956 0.590318 0.603774 0.626273 0.6319 0.680699 0.652503 0.67681 0.686089 0.702617 0.655525 0.619657 0.662692 0.190564 0.229717 0.235216 0.204326 0.218291 0.210507 0.235699 0.231084 0.239861 0.233121 0.269843 0.276347 0.295453 0.31334 0.316865 0.22559 0.250245 0.260652 0.276435 0.220905 0.226353 0.231875 0.241416 0.259531 0.258982 0.274599 0.20988 0.254124 0.197656 0.219487 0.254417 0.219059 0.231234 0.242298 0.267657 0.295959 0.0423485 0.0497659 0.0464338 0.0422436 0.0421433 0.0463229 0.0397685 0.0373494 0.0399591 0.149144 0.160326 0.166436 0.15549 0.158996 0.168723 0.1688 0.198258 0.190712 0.153593 0.161399 0.218326 0.162493 0.163611 0.196763 0.171455 0.158069 0.178137 0.180013 0.155602 0.177192 0.205398 0.166081 0.178825 0.176144 0.151854 0.161327 0.14733 0.190567 0.184687 0.163607 0.175578 0.160228 0.166637 0.156819 0.188911 0.0016828 0.00257065 0.0078966 0.0060151 0.00190465 0.0021349 0.00124194 0.00159019 0.00435545 0.00451365 0.00204198 0.00143286 0.00380254 0.00380031 0.00258798 0.00304385 0.00129733 0.00140092 0.00192861 0.00185959 0.00548465 0.00484138 0.00633912 0.00703301 0.00367648 0.00449458 0.00364002 0.00372067 0.00256164 0.00309745 0.00151115 0.00194163 0.00398501 0.00303843 0.00208733 0.00213259 0.00537598 0.00560391 0.00338735 0.00357468 0.27082 0.304656 0.721387 0.480495 0.276881 0.291983 0.392989 0.430414 0.573237 0.572041 0.320454 0.367518 0.650738 0.405278 0.426669 0.569459 0.415514 0.346094 0.479781 0.502446 0.662569 0.4147 0.677745 0.708915 0.577461 0.63228 0.488748 0.51287 0.523275 0.360275 0.373365 0.306806 0.600451 0.532027 0.433453 0.46908 0.427567 0.462718 0.377097 0.547596 0.729463 0.590064 0.63235 0.698753 0.674307 0.692184 0.721772 0.610969 0.647043 0.670751 0.659715 0.704298 0.679595 0.631862 0.687416 0.701199 0.718476 0.634451 0.567883 0.666602 0.639306 0.647857 0.682614 0.607565 0.12412 0.138523 0.106868 0.124147 0.129794 0.134124 0.11661 0.129768 0.111622 0.119619 0.123915 0.140389 0.115371 0.125655 0.135921 0.120412 0.123499 0.133049 0.117444 0.128554 0.105103 0.113101 0.119477 0.108736 0.113996 0.117929 0.436307 0.483782 0.688115 0.721802 0.449497 0.472133 0.503324 0.54501 0.606067 0.614356 0.530834 0.5578 0.719672 0.64722 0.63851 0.731292 0.530094 0.549028 0.620439 0.635801 0.613125 0.639096 0.665032 0.667982 0.706444 0.564755 0.487022 0.691206 0.575971 0.605565 0.0524754 0.0413466 0.0672066 0.0482606 0.0448907 0.0594059 0.0480847 0.064576 0.0560749 0.0530947 0.0644715 0.0450521 0.0519318 0.063758 0.0650459 0.0534224 0.358363 0.417544 0.158702 0.376543 0.403921 0.399346 0.44626 0.446901 0.467049 0.286754 0.312493 0.371661 0.211922 0.22259 0.257532 0.427285 0.297048 0.319461 0.34431 0.174821 0.319928 0.371895 0.220929 0.241021 0.401592 0.209295 0.381448 0.290369 0.330752 0.420025 0.294813 0.321752 0.16961 0.168579 0.220185 0.254376 0.0259268 0.0311151 0.0360025 0.0371901 0.0282254 0.0306083 0.0319757 0.0334807 0.0335548 0.0364027 0.0292095 0.0245671 0.0106546 0.0275786 0.0260745 0.0209378 0.0192401 0.0153563 0.0147686 0.0291973 0.027545 0.0195522 0.0343432 0.0346187 0.0303239 0.0200981 0.0288488 0.0227188 0.0233075 0.0122933 0.0122435 0.0117208 0.0200477 0.0306368 0.0193804 0.024473 0.0199044 0.0177131 0.0253557 0.00635512 0.00675925 0.0191732 0.0232154 0.00646809 0.00641062 0.00970666 0.0104452 0.0139154 0.0139172 0.0118167 0.0163496 0.0203517 0.018057 0.0209467 0.0216118 0.0101171 0.0138053 0.015707 0.0175977 0.191476 0.170509 0.184041 0.179293 0.236036 0.243693 0.331151 0.326365 0.177169 0.166886 0.169121 0.162681 0.240353 0.173455 0.240231 0.234585 0.281333 0.221142 0.294199 0.217315 0.178489 0.18696 0.173504 0.218859 0.0525021 0.0567595 0.0552385 0.0529688 0.0532677 0.0544545 0.0451053 0.0483303 0.0503212 0.0460152 0.0492467 0.0497412 0.0345978 0.05144 0.0546482 0.0398894 0.0410322 0.0436861 0.0373401 0.0526912 0.043635 0.0465269 0.0296501 0.00817678 0.0396634 0.0137199 0.0103749 0.0388174 0.0102917 0.0432574 0.0170492 0.0160056 0.00484759 0.0129358 0.0062317 0.00698654 0.00733663 0.00927526 0.00956749 0.0105209 0.00840269 0.0186828 0.0283159 0.0132127 0.00952804 0.0081059 0.0446591 0.0093817 0.0106372 0.0195276 0.0261023 0.0341545 0.0375937 0.0131544 0.0134694 0.0396404 0.0161788 0.0167724 0.0306069 0.0234118 0.0137771 0.0249185 0.0286583 0.00650622 0.0108636 0.0171942 0.00886818 0.00936834 0.0115456 0.00863781 0.0129783 0.00962554 0.0109878 0.00562971 0.00597069 0.00699847 0.00760842 0.00112049 0.00251613 0.00422469 0.00524626 0.00944296 0.00237914 0.0041318 0.00675141 0.00388445 0.00654019 0.0654423 0.0408868 0.0536169 0.0435839 0.0556216 0.0372895 0.0476526 0.0394086 0.0459578 0.133029 0.151925 0.233398 0.275755 0.14175 0.14868 0.151108 0.165723 0.195496 0.191961 0.163551 0.17618 0.249185 0.21733 0.214095 0.263567 0.165792 0.178536 0.197472 0.204898 0.227955 0.236638 0.257775 0.189073 0.153009 0.199113 0.128375 0.152817 0.150175 0.147875 0.136903 0.134589 0.133484 0.150741 0.147954 0.148421 0.138576 0.158797 0.152452 0.148764 0.14394 0.14762 0.163814 0.153934 0.160502 0.156839 0.133448 0.129928 0.142209 0.137761 0.0640683 0.068897 0.0644877 0.0680433 0.0661518 0.0521002 0.0546504 0.0191502 0.0346456 0.0275094 0.0257701 0.03099 0.0329281 0.306531 0.377675 0.286316 0.32311 0.356061 0.293807 0.353069 0.282273 0.319697 0.312972 0.369215 0.277349 0.304282 0.338016 0.281095 0.322259 0.339199 0.290749 0.328211 0.253337 0.273921 0.248823 0.276399 0.265405 0.26723 0.275925 0.271848 0.278367 0.282369 0.280199 0.293883 0.25546 0.241551 0.294831 0.26548 0.263991 0.00295662 0.00592762 0.00510878 0.00827166 0.00486404 0.00505611 0.0131714 0.0123807 0.0124319 0.0170266 0.00369067 0.00514043 0.00910682 0.010941 0.00337364 0.00179432 0.00401176 0.0221289 0.0218737 0.0229582 0.0271431 0.031221 0.0273683 0.0187967 0.0210007 0.0223348 0.0022094 0.00255608 0.00300617 0.00273481 0.00239185 0.00210826 0.00284736 0.00256504 0.00211859 0.00261093 0.00149876 0.00175785 0.0186793 0.0271606 0.0334974 0.0216359 0.0240662 0.0195304 0.0257515 0.0212632 0.0246885 0.0238588 0.0298338 0.0275254 0.0293192 0.0319742 0.030954 0.0228885 0.0271008 0.0246064 0.0287495 3.72529e-09 3.72529e-09 0.00248357 0.000353012 3.72529e-09 3.72529e-09 0.00100144 3.72529e-09 0.00174025 0.00102519 3.72529e-09 3.72529e-09 0.00265602 3.72529e-09 3.72529e-09 0.00209435 0.000465393 3.72529e-09 0.00123742 0.000605588 0.00245205 0.00271893 0.00269037 0.00212672 0.00111724 0.00187263 0.00877172 0.00647897 0.00628746 0.00797227 0.00819653 0.0103036 0.0124825 0.015442 0.018728 0.0197358 0.0218982 0.00638583 0.0114907 0.0128929 0.0140166 0.00689866 0.00823187 0.00862594 0.00912173 0.0105447 0.013816 0.0142038 0.00669383 0.0138548 0.0058244 0.00883122 0.0102622 0.00750067 0.00956876 0.0103414 0.0159582 0.0175949 0.613194 0.587446 0.610228 0.609474 0.601259 0.617466 0.596011 0.616785 0.603589 0.609273 0.578621 0.4661 0.515609 0.530643 0.548499 0.620651 0.657892 0.493216 0.56242 0.583939 0.586522 0.597479 0.541738 0.623719 0.037788 0.0349764 0.0315958 0.0350642 0.0340254 0.0327433 0.738422 0.669468 0.70433 0.717488 0.729809 0.737018 0.734153 0.688269 0.70874 0.726563 0.716904 0.723246 0.733842 0.709019 0.729217 0.697257 0.709739 0.691891 0.650518 0.717274 0.701737 0.680119 0.694489 0.724064 0.0155061 0.021603 0.0103361 0.0150147 0.0183153 0.0168874 0.0212284 0.0102372 0.0151017 0.0110401 0.0159785 0.00928864 0.00995637 0.0061948 0.00578366 0.00820102 0.00905801 0.00866808 0.00646141 0.00755809 0.00648171 0.00844079 0.0051223 0.0844479 0.128152 0.138695 0.14595 0.149127 0.105661 0.110017 0.12954 0.0925552 0.093897 0.105562 0.133963 0.108822 0.112924 0.118833 0.0867424 0.126439 0.136306 0.101481 0.106032 0.133858 0.0967547 0.12299 0.108491 0.12828 0.138252 0.114421 0.119477 0.0855355 0.0844924 0.0960521 0.106994 0.0377816 0.0390509 0.0379339 0.0454488 0.0435712 0.0494495 0.0481653 0.0443516 0.0331524 0.0358671 0.0370598 0.0365517 0.0405038 0.0397626 0.0428134 0.0394996 0.0454423 0.0453199 0.0506066 0.0460901 0.0502601 0.0420436 0.0479028 0.0443334 0.0476049 0.0371365 0.0418341 0.0409385 0.121586 0.165113 0.128608 0.143225 0.125012 0.133527 0.138248 0.151905 0.13669 0.153915 0.155651 0.15028 0.134393 0.147124 0.136452 0.144105 0.116977 0.117389 0.119231 0.137856 0.153897 0.118976 0.12322 0.136506 0.122181 0.13865 0.181672 0.173155 0.171148 0.155496 0.136167 0.155711 0.131844 0.151044 0.151998 0.136282 0.726612 0.632213 0.6696 0.688107 0.697516 0.718656 0.715322 0.65257 0.678291 0.690459 0.686574 0.700146 0.714882 0.681935 0.711602 0.677735 0.690221 0.653438 0.612766 0.695267 0.663286 0.653365 0.667111 0.70373 0.00905099 0.0294994 0.0202629 0.0161155 0.0231237 0.0122484 0.0275751 0.0156395 0.0248189 0.0197022 0.0253983 0.0540559 0.0442949 0.0351171 0.0448834 0.0323496 0.0490174 0.0388607 0.047163 0.0418412 0.148415 0.145491 0.14719 0.145992 0.150115 0.137839 0.15663 0.148464 0.14081 0.136486 0.135995 0.127978 0.143758 0.139668 0.143802 0.132903 0.168508 0.15589 0.160331 0.144328 0.142051 0.145373 0.136759 0.150909 0.00725209 0.0066365 0.0101509 0.0152377 0.0068376 0.00650911 0.00702196 0.0095088 0.00618869 0.00643425 0.00641803 0.00935031 0.339212 0.355374 0.391934 0.347292 0.355653 0.353037 0.372699 0.373001 0.384731 0.414499 0.441846 0.44658 0.499122 0.508438 0.501307 0.36357 0.430897 0.434059 0.446685 0.425158 0.462495 0.451517 0.383499 0.411843 0.465209 0.481086 0.0442627 0.0496188 0.0380189 0.036587 0.0369245 0.0365824 0.0377891 0.0368827 0.0376815 0.0368733 0.0365592 0.0345495 0.0364186 0.0374641 0.0362588 0.0411041 0.0380777 0.0434304 0.0419528 0.0398627 0 0.000285426 0.00365397 0.00538052 0.00189612 0.00279401 0.00327691 0.00504067 0 0.00171302 0.00240753 0.000109828 0.00430648 0.00388965 0.0017886 0.00258397 0.00120882 0.000808922 0.000376925 0.00178909 0.00279289 0.0017487 0.0949709 0.107882 0.103627 0.103446 0.112968 0.111378 0.0969129 0.0998863 0.106983 0.0970036 0.103863 0.123576 0.101461 0.101697 0.112836 0.100793 0.114765 0.0984599 0.11095 0.101761 0.0882015 0.0780803 0.0873928 0.0967078 0.0763051 0.087496 0.0769344 0.0743244 0.0850856 0.0761103 0.0775018 0.0734095 0.0834891 0.0869335 0.0358715 0.0382266 0.0308954 0.0336512 0.0300701 0.0364958 0.0328374 0.036997 0.0327364 0.0294745 0.0323923 0.0343983 0.0314484 0.0344382 0.0347125 0 0 0 0.00255526 0.00526289 0.00251833 0.12069 0.135747 0.113362 0.137617 0.143681 0.131394 0.128706 0.119298 0.128357 0.106891 0.118111 0.117331 0.109648 0.107707 0.127121 0.124881 0.0422025 0.0453896 0.0463674 0.0481706 0.0459652 0.049046 0.0459327 0.0483329 0.558976 0.598456 0.581536 0.621407 0.594779 0.631446 0.622081 0.610893 0.533657 0.540199 0.548856 0.556752 0.579862 0.572865 0.587287 0.570741 0.604201 0.00997401 0.0059704 0.00560758 0.00241081 0.00784449 0.00622294 0.00996195 0.00726423 0.00737731 0.00706584 0.00546275 1.49012e-08 1.49012e-08 0.00162272 1.49012e-08 1.49012e-08 0.00764467 0.00251552 0.00305518 1.49012e-08 0.0105831 0.00474 0.00973082 0.00684463 0.00841657 0.00278649 0.00612726 0.00379365 0.0109198 0.00589216 0.0107812 0.00781929 0.00572332 0.00982186 0.00834861 0.00661187 0.00286904 0.00186731 0.00378647 0.00132531 0.0874873 0.0872677 0.0846412 0.0837044 0.0866284 0.100937 0.0977095 0.0945296 0.0861351 0.0868783 0.0852492 0.0961259 0.191928 0.167127 0.172423 0.18133 0.184545 0.202837 0.215268 0.172484 0.186679 0.187983 0.155457 0.170928 0.182585 0.165784 0.188501 0.17834 0.188352 0.152786 0.149666 0.179258 0.169631 0.163872 0.176125 0.201856 0.625818 0.635268 0.62627 0.0114023 0.0128403 0.0176711 0 0.0123333 0.0128176 0.01432 0.0139687 0.0165922 0.0155711 0.0102217 0.0123358 0.0153459 0.00628523 0.00801207 0.0111693 0.0145364 0.011465 0.0132526 0.0130684 0.00308742 1.49012e-08 1.49012e-08 0.00061729 1.49012e-08 0.00196449 1.49012e-08 0.000500763 1.49012e-08 0.00268639 0 0 0.000873826 0 0 1.49012e-08 0 0.00154501 0 0.765818 0.724174 0.74496 0.730373 0.7417 0.727498 0.745128 0.741506 0.74559 0.754146 0.756233 0.734087 0.73761 0.737725 0.749848 0.718525 0.729198 0.727164 0.720424 0.719541 0.725067 0.730048 0.747317 0.731279 0.741624 0.733609 0.805524 0.747156 0.803999 0.75679 0.784123 0.731627 0.764626 0.734563 0.746365 0.75949 0.807886 0.759319 0.787796 0.808683 0.777487 0.749373 0.784264 0.757429 0.771605 0.713927 0.723172 0.735524 0.711161 0.717546 0.722286 0.0398025 0.0414991 0.0253542 0.026272 0.0256719 0.0335595 0.0397689 0.0327764 0.0282191 0.0359774 0.038622 0.279139 0.315071 0.405545 0.288421 0.300836 0.307427 0.338887 0.354486 0.369465 0.355305 0.373788 0.430393 0.458072 0.457046 0.480969 0.323703 0.367398 0.393433 0.40144 0.349603 0.365968 0.387337 0.412397 0.481097 0.325804 0.294605 0.423247 0.336358 0.395355 0.438734 0.343352 0.464996 0.401253 0.4382 0.466523 0.384092 0.00662212 0 0.00484907 0.00279663 0.00908316 0.00702436 0.0090751 0.00932943 0.00806978 0.0061934 0.00822917 0.00865785 0.00838267 0.00721916 0.0096432 0.00956869 0.00714046 0.00661834 0.00749344 0.00737925 0.00823517 0.00747656 0.00877945 0.00764457 0.79688 0.783487 0.7938 0.777094 0.79363 0.766267 0.788907 0.778343 0.786838 0.577553 0.568403 0.588585 0.810452 0.808121 0.789964 0.0243487 0.0287463 0.0255577 0.027019 0.0258997 0.0276096 0.0327951 0.0318264 0.0285602 0.030839 0.0444162 0.0327813 0.0332759 0.0422708 0.0273449 0.0299227 0.0326027 0.0343696 0.0396147 0.0333501 0.0278412 0.0252151 0.0292641 0.030684 0.0378225 0.190551 0.21582 0.168844 0.177166 0.184931 0.216968 0.187603 0.169084 0.344234 0.361407 0.458023 0.454675 0.348712 0.38333 0.478822 0.486704 0.35915 0.369869 0.459361 0.469925 0.439891 0.334842 0.439541 0.0388824 0.0311638 0.0294952 0.0377425 0.0337097 0.0394179 0.0369782 0.0352919 0.0296397 0.0350603 0.0316852 0.0310733 0.0339429 0.0362456 0.0295744 0.0264372 0.0322216 0.0231069 0.0262126 0.027916 0.646033 0.669072 0.598868 0.613402 0.684373 0.693596 0.623765 0.703847 0.702493 0.68639 0.656551 0.689475 0.647628 0.659202 0.59898 0.675513 0.584669 0.642506 0.61241 0.596769 0.646503 0.688228 0.678492 0.653652 0.584803 0.693692 0.661038 0.643129 0.0338733 0.035642 0.0325366 0.034033 0.0293981 0.0339068 0.0297011 0.0323032 0.0319352 0.0280119 0.0309816 0.0336877 0.0572989 0.0537957 0.0405548 0.0548462 0.0540892 0.0466876 0.0465128 0.0413414 0.0430429 0.042468 0.0412445 0.03439 0.0314799 0.0316236 0.0282398 0.0460776 0.0413387 0.0357237 0.0361103 0.0374239 0.0325617 0.0366236 0.0465665 0.0388352 0.0348392 0.0302945 0.0412554 0.0432768 0.0408685 0.301248 0.256521 0.27902 0.291672 0.282937 0.27094 0.262147 0.271794 0.288106 0.250376 0.276773 0.235258 0.245796 0.25796 0.264185 0.63172 0.646162 0.603718 0.609443 0.37918 0.450032 0.498408 0.522059 0.42321 0.389578 0.427592 0.371863 0.29869 0.292781 0.27351 0.287328 0.264145 0.286582 0.265739 0.26984 0.272472 0.252149 0.261075 0.285242 0.0244956 0.0264588 0.0283048 0.256665 0.285692 0.313812 0.309439 0.28438 0.271965 0.295851 0.264696 0.276517 0.280899 0.290021 0.220469 0.218638 0.305264 0.300644 0.205579 0.205875 0.262898 0.25658 0.224058 0.20785 0.272337 0.275442 0.280227 0.243526 0.21675 0.209088 0.284351 0.258422 0.266103 0.246683 0.240167 0.235027 0.103799 0.111554 0.116173 0.121657 0.099889 0.105831 0.10892 0.108246 0.284474 0.298161 0.299902 0.308065 0.295095 0.290593 0.304649 0.280192 0.280388 0.276236 0.28899 0.270931 0.0455705 0.0406845 0.044556 0.0415799 0.0431631 1.49012e-08 1.49012e-08 1.49012e-08 0 0 0 0.0362596 0.02365 0.019556 0.0221299 0.019425 0.0217222 0.0224255 0.0271091 0.0249823 0.023635 0.0258853 0.0256744 0.0195795 0.0133707 0.0242365 0.0190911 0.0180692 0.0214551 0.0238014 0.0255723 0.0184495 0.0138723 0.0230813 0.0251277 0.0190189 0.0244144 0.0185661 0.0153767 0.0184395 0.0151578 0.0206475 0.718022 0.756431 0.76719 0.783959 0.74158 0.726451 0.731997 0.71629 0.69665 0.697063 0.70565 0.737863 0.00827499 0.0063125 0.00730428 0.00776978 0.00777771 0.00678574 0.00818318 0.00695036 0.00774642 0.00793527 0.00746411 0.00617678 0.0070188 0.00708711 0.00675858 0.0071959 0.0079347 0.00678627 0.00727965 0.00690324 0.0051847 0.0057634 0.00656096 0.00613137 0.00717593 0.00672662 0.00789287 0.0068359 0.00740115 0.00690808 0.00587154 0.00680933 0.00740901 0.00680373 0.00731011 0.00572724 0.00538356 0.0069417 0.00652573 0.00669184 3.83164e-05 3.72529e-09 0 0.00316383 3.72529e-09 3.72529e-09 8.75652e-05 3.72529e-09 0.000241555 0 0.00013752 3.72529e-09 3.72529e-09 0.00047502 0 3.72529e-09 3.72529e-09 3.72529e-09 3.72529e-09 3.72529e-09 0.00127773 0.000771929 0.000411402 0.000680091 0.00101091 0.000802025 0.000639112 0.000456298 0.000429554 0.000572383 0.00402173 0.00352859 0.00343434 0.00127242 0.000659648 0.0015858 0.00055105 0.000856152 0.00113096 0.000695941 0.485296 0.517351 0.346405 0.361633 0.580215 0.62739 0.298523 0.540546 0.567832 0.390428 0.500903 0.60565 0.442821 0.463104 0.272301 0.378026 0.311921 0.473549 0.28721 0.337299 0.419855 0.491798 0.560728 0.347113 0.264761 0.519526 0.353637 0.395047 0.191882 0.189859 0.214484 0.214393 0.192975 0.266195 0.281981 0.204025 0.189739 0.249192 0.270406 0.207995 0.0357547 0.0313811 0.0309205 0.0298355 0.0662649 0.0601964 0.0562052 0.0613768 0.0521809 0.0565516 0.0517532 0.055861 0.0509017 0.0502479 0.0517806 0.00283133 0.00112899 0 0.00153024 0 0.00220294 0.00264127 0.00051852 0.000905555 3.72529e-09 0.000909061 0.00183337 0.00246876 0.00109836 0.00173162 0.00274911 0.00236463 0.00143516 0.00157748 0.00144594 0.00150094 0.000530417 0.00078218 0.0024795 0.790777 0.756572 0.804132 0.804724 0.780673 0.799642 0.800521 0.782791 0.781569 0.806377 0.744118 0.789866 0.76637 0.738044 0.732973 0.764471 0.758693 0.77831 0.757001 0.783538 1.49012e-08 1.49012e-08 0.00542765 0.00966024 1.49012e-08 0.0117066 1.49012e-08 0.00673098 0.0060026 0.660368 0.699161 0.703805 0.720903 0.679483 0.619071 0.64536 0.606518 0.00431391 0.00430182 0.00261019 0.00766967 0.0040766 0.00392841 0.00368839 0.00512737 0.00343605 0.00480445 0.00471346 0.00481551 0.00331972 0.00560199 0.00525036 0.0047076 0.00432527 0.0046144 0.00386233 0.00439351 0.00324039 0.00317201 0.00278555 0.0048692 0.00615024 0.00367969 0.00375069 0.00408284 0.00337052 0.00477897 0.00712061 0.00838284 0.00803902 0.00608645 0.00501534 0.00540473 0.0044576 0.00598802 0.0062462 0.0048419 0.59495 0.660713 0.756098 0.611944 0.643453 0.654828 0.696164 0.718438 0.727766 0.653971 0.706051 0.75383 0.715271 0.735678 0.751115 0.683928 0.683454 0.710351 0.732289 0.674994 0.62725 0.689726 0.00185224 2.32831e-10 1.49012e-08 0 0.000670909 0 0.00244449 0 0.00125535 0 0 0 0 0 0 2.32831e-10 0.00103565 0 0 0 0.0016999 0.00348134 0.00102405 0.000679841 0.000897634 0.000288976 0.00272119 0.00103149 0.00216686 0.00301453 0.00352442 0.00216557 0.000789419 0.00178646 0.00315748 0.00143299 0.00110869 0 0.000790774 0 0 0 0 0 0 0 0 0 0 0 0 0 0 0 0 0 0.00177859 0.000531184 0 0.000942125 0.000860405 0.000298853 1.49012e-08 0.0132364 1.49012e-08 0.009233 0.00797467 0.000739837 0.0018296 0.00226594 0.00186262 0.000811594 0.00290961 0.00100441 0.00155227 0.00170593 0.00175523 0.00119681 0.00142144 0.00229051 0.00190548 0.00101405 0.00168081 0.00140701 0.000530129 0.00089842 0.000665549 0.00105168 0.001052 0.000781118 0.000877877 0.017804 0.00380592 0.000637502 0.000939865 0.00567077 0.00422465 0.0021