# vtk DataFile Version 5.1
vtk output
ASCII

DATASET UNSTRUCTURED_GRID
POINTS 637 float
0 0 0
0.5 0 0
1 0 0
1.5 0 0
2 0 0
0 0.5 0
0.5 0.5 0
1 0.5 0
1.5 0.5 0
2 0.5 0
0 1 0
0.5 1 0
1 1 0
1.5 1 0
2 1 0
0 0 0.5
0.5 0 0.5
1 0 0.5
1.5 0 0.5
2 0 0.5
0 0.5 0.5
0.5 0.5 0.5
1 0.5 0.5
1.5 0.5 0.5
2 0.5 0.5
0 1 0.5
0.5 1 0.5
1 1 0.5
1.5 1 0.5
2 1 0.5
0 0 1
0.5 0 1
1 0 1
1.5 0 1
2 0 1
0 0.5 1
0.5 0.5 1
1 0.5 1
1.5 0.5 1
2 0.5 1
0 1 1
0.5 1 1
1 1 1
1.5 1 1
2 1 1
0 0.166667 0
0 0.333333 0
0.166667 0.5 0.166667
0.333333 0.5 0.333333
0.333333 0.333333 0.333333
0.166667 0.166667 0.166667
0.166667 0.166667 0
0.333333 0.333333 0
0.166667 0.5 0
0.333333 0.5 0
0.5 0.5 0.333333
0.5 0.5 0.166667
0.166667 0.333333 0
0.333333 0.5 0.166667
0.333333 0.333333 0.166667
0.166667 0.333333 0.166667
0.166667 0.166667 0.5
0.333333 0.333333 0.5
0.5 0.333333 0.5
0.5 0.166667 0.5
0.333333 0 0.5
0.166667 0 0.5
0 0 0.333333
0 0 0.166667
0.333333 0 0.333333
0.166667 0 0.166667
0.166667 0.166667 0.333333
0.333333 0.166667 0.333333
0.166667 0 0.333333
0.333333 0.166667 0.5
0 0.5 0.166667
0 0.5 0.333333
0 0.333333 0.333333
0 0.166667 0.166667
0.166667 0.5 0.5
0.333333 0.5 0.5
0.166667 0.5 0.333333
0.166667 0.333333 0.333333
0 0.333333 0.166667
0 0.166667 0.5
0 0.333333 0.5
0.166667 0.333333 0.5
0 0.166667 0.333333
0.5 0 0.333333
0.5 0 0.166667
0.166667 0 0
0.333333 0 0
0.5 0.333333 0.333333
0.5 0.166667 0.166667
0.333333 0 0.166667
0.333333 0.166667 0.166667
0.5 0.166667 0.333333
0.5 0.333333 0
0.5 0.166667 0
0.333333 0.166667 0
0.5 0.333333 0.166667
0.666667 0.5 0.166667
0.833333 0.5 0.333333
0.833333 0.333333 0.333333
0.666667 0.166667 0.166667
0.666667 0.166667 0
0.833333 0.333333 0
0.666667 0.5 0
0.833333 0.5 0
1 0.5 0.333333
1 0.5 0.166667
0.666667 0.333333 0
0.833333 0.5 0.166667
0.833333 0.333333 0.166667
0.666667 0.333333 0.166667
0.666667 0.166667 0.5
0.833333 0.333333 0.5
1 0.333333 0.5
1 0.166667 0.5
0.833333 0 0.5
0.666667 0 0.5
0.833333 0 0.333333
0.666667 0 0.166667
0.666667 0.166667 0.333333
0.833333 0.166667 0.333333
0.666667 0 0.333333
0.833333 0.166667 0.5
0.666667 0.5 0.5
0.833333 0.5 0.5
0.666667 0.5 0.333333
0.666667 0.333333 0.333333
0.666667 0.333333 0.5
1 0 0.333333
1 0 0.166667
0.666667 0 0
0.833333 0 0
1 0.333333 0.333333
1 0.166667 0.166667
0.833333 0 0.166667
0.833333 0.166667 0.166667
1 0.166667 0.333333
1 0.333333 0
1 0.166667 0
0.833333 0.166667 0
1 0.333333 0.166667
1.16667 0.5 0.166667
1.33333 0.5 0.333333
1.33333 0.333333 0.333333
1.16667 0.166667 0.166667
1.16667 0.166667 0
1.33333 0.333333 0
1.16667 0.5 0
1.33333 0.5 0
1.5 0.5 0.333333
1.5 0.5 0.166667
1.16667 0.333333 0
1.33333 0.5 0.166667
1.33333 0.333333 0.166667
1.16667 0.333333 0.166667
1.16667 0.166667 0.5
1.33333 0.333333 0.5
1.5 0.333333 0.5
1.5 0.166667 0.5
1.33333 0 0.5
1.16667 0 0.5
1.33333 0 0.333333
1.16667 0 0.166667
1.16667 0.166667 0.333333
1.33333 0.166667 0.333333
1.16667 0 0.333333
1.33333 0.166667 0.5
1.16667 0.5 0.5
1.33333 0.5 0.5
1.16667 0.5 0.333333
1.16667 0.333333 0.333333
1.16667 0.333333 0.5
1.5 0 0.333333
1.5 0 0.166667
1.16667 0 0
1.33333 0 0
1.5 0.333333 0.333333
1.5 0.166667 0.166667
1.33333 0 0.166667
1.33333 0.166667 0.166667
1.5 0.166667 0.333333
1.5 0.333333 0
1.5 0.166667 0
1.33333 0.166667 0
1.5 0.333333 0.166667
1.66667 0.5 0.166667
1.83333 0.5 0.333333
1.83333 0.333333 0.333333
1.66667 0.166667 0.166667
1.66667 0.166667 0
1.83333 0.333333 0
1.66667 0.5 0
1.83333 0.5 0
2 0.5 0.333333
2 0.5 0.166667
1.66667 0.333333 0
1.83333 0.5 0.166667
1.83333 0.333333 0.166667
1.66667 0.333333 0.166667
1.66667 0.166667 0.5
1.83333 0.333333 0.5
2 0.333333 0.5
2 0.166667 0.5
1.83333 0 0.5
1.66667 0 0.5
1.83333 0 0.333333
1.66667 0 0.166667
1.66667 0.166667 0.333333
1.83333 0.166667 0.333333
1.66667 0 0.333333
1.83333 0.166667 0.5
1.66667 0.5 0.5
1.83333 0.5 0.5
1.66667 0.5 0.333333
1.66667 0.333333 0.333333
1.66667 0.333333 0.5
2 0 0.333333
2 0 0.166667
1.66667 0 0
1.83333 0 0
2 0.333333 0.333333
2 0.166667 0.166667
1.83333 0 0.166667
1.83333 0.166667 0.166667
2 0.166667 0.333333
2 0.333333 0
2 0.166667 0
1.83333 0.166667 0
2 0.333333 0.166667
0 0.666667 0
0 0.833333 0
0.166667 1 0.166667
0.333333 1 0.333333
0.333333 0.833333 0.333333
0.166667 0.666667 0.166667
0.166667 0.666667 0
0.333333 0.833333 0
0.166667 1 0
0.333333 1 0
0.5 1 0.333333
0.5 1 0.166667
0.166667 0.833333 0
0.333333 1 0.166667
0.333333 0.833333 0.166667
0.166667 0.833333 0.166667
0.166667 0.666667 0.5
0.333333 0.833333 0.5
0.5 0.833333 0.5
0.5 0.666667 0.5
0.166667 0.666667 0.333333
0.333333 0.666667 0.333333
0.333333 0.666667 0.5
0 1 0.166667
0 1 0.333333
0 0.833333 0.333333
0 0.666667 0.166667
0.166667 1 0.5
0.333333 1 0.5
0.166667 1 0.333333
0.166667 0.833333 0.333333
0 0.833333 0.166667
0 0.666667 0.5
0 0.833333 0.5
0.166667 0.833333 0.5
0 0.666667 0.333333
0.5 0.833333 0.333333
0.5 0.666667 0.166667
0.333333 0.666667 0.166667
0.5 0.666667 0.333333
0.5 0.833333 0
0.5 0.666667 0
0.333333 0.666667 0
0.5 0.833333 0.166667
0.666667 1 0.166667
0.833333 1 0.333333
0.833333 0.833333 0.333333
0.666667 0.666667 0.166667
0.666667 0.666667 0
0.833333 0.833333 0
0.666667 1 0
0.833333 1 0
1 1 0.333333
1 1 0.166667
0.666667 0.833333 0
0.833333 1 0.166667
0.833333 0.833333 0.166667
0.666667 0.833333 0.166667
0.666667 0.666667 0.5
0.833333 0.833333 0.5
1 0.833333 0.5
1 0.666667 0.5
0.666667 0.666667 0.333333
0.833333 0.666667 0.333333
0.833333 0.666667 0.5
0.666667 1 0.5
0.833333 1 0.5
0.666667 1 0.333333
0.666667 0.833333 0.333333
0.666667 0.833333 0.5
1 0.833333 0.333333
1 0.666667 0.166667
0.833333 0.666667 0.166667
1 0.666667 0.333333
1 0.833333 0
1 0.666667 0
0.833333 0.666667 0
1 0.833333 0.166667
1.16667 1 0.166667
1.33333 1 0.333333
1.33333 0.833333 0.333333
1.16667 0.666667 0.166667
1.16667 0.666667 0
1.33333 0.833333 0
1.16667 1 0
1.33333 1 0
1.5 1 0.333333
1.5 1 0.166667
1.16667 0.833333 0
1.33333 1 0.166667
1.33333 0.833333 0.166667
1.16667 0.833333 0.166667
1.16667 0.666667 0.5
1.33333 0.833333 0.5
1.5 0.833333 0.5
1.5 0.666667 0.5
1.16667 0.666667 0.333333
1.33333 0.666667 0.333333
1.33333 0.666667 0.5
1.16667 1 0.5
1.33333 1 0.5
1.16667 1 0.333333
1.16667 0.833333 0.333333
1.16667 0.833333 0.5
1.5 0.833333 0.333333
1.5 0.666667 0.166667
1.33333 0.666667 0.166667
1.5 0.666667 0.333333
1.5 0.833333 0
1.5 0.666667 0
1.33333 0.666667 0
1.5 0.833333 0.166667
1.66667 1 0.166667
1.83333 1 0.333333
1.83333 0.833333 0.333333
1.66667 0.666667 0.166667
1.66667 0.666667 0
1.83333 0.833333 0
1.66667 1 0
1.83333 1 0
2 1 0.333333
2 1 0.166667
1.66667 0.833333 0
1.83333 1 0.166667
1.83333 0.833333 0.166667
1.66667 0.833333 0.166667
1.66667 0.666667 0.5
1.83333 0.833333 0.5
2 0.833333 0.5
2 0.666667 0.5
1.66667 0.666667 0.333333
1.83333 0.666667 0.333333
1.83333 0.666667 0.5
1.66667 1 0.5
1.83333 1 0.5
1.66667 1 0.333333
1.66667 0.833333 0.333333
1.66667 0.833333 0.5
2 0.833333 0.333333
2 0.666667 0.166667
1.83333 0.666667 0.166667
2 0.666667 0.333333
2 0.833333 0
2 0.666667 0
1.83333 0.666667 0
2 0.833333 0.166667
0.166667 0.5 0.666667
0.333333 0.5 0.833333
0.333333 0.333333 0.833333
0.166667 0.166667 0.666667
0.5 0.5 0.833333
0.5 0.5 0.666667
0.333333 0.5 0.666667
0.333333 0.333333 0.666667
0.166667 0.333333 0.666667
0.166667 0.166667 1
0.333333 0.333333 1
0.5 0.333333 1
0.5 0.166667 1
0.333333 0 1
0.166667 0 1
0 0 0.833333
0 0 0.666667
0.333333 0 0.833333
0.166667 0 0.666667
0.166667 0.166667 0.833333
0.333333 0.166667 0.833333
0.166667 0 0.833333
0.333333 0.166667 1
0 0.5 0.666667
0 0.5 0.833333
0 0.333333 0.833333
0 0.166667 0.666667
0.166667 0.5 1
0.333333 0.5 1
0.166667 0.5 0.833333
0.166667 0.333333 0.833333
0 0.333333 0.666667
0 0.166667 1
0 0.333333 1
0.166667 0.333333 1
0 0.166667 0.833333
0.5 0 0.833333
0.5 0 0.666667
0.5 0.333333 0.833333
0.5 0.166667 0.666667
0.333333 0 0.666667
0.333333 0.166667 0.666667
0.5 0.166667 0.833333
0.5 0.333333 0.666667
0.666667 0.5 0.666667
0.833333 0.5 0.833333
0.833333 0.333333 0.833333
0.666667 0.166667 0.666667
1 0.5 0.833333
1 0.5 0.666667
0.833333 0.5 0.666667
0.833333 0.333333 0.666667
0.666667 0.333333 0.666667
0.666667 0.166667 1
0.833333 0.333333 1
1 0.333333 1
1 0.166667 1
0.833333 0 1
0.666667 0 1
0.833333 0 0.833333
0.666667 0 0.666667
0.666667 0.166667 0.833333
0.833333 0.166667 0.833333
0.666667 0 0.833333
0.833333 0.166667 1
0.666667 0.5 1
0.833333 0.5 1
0.666667 0.5 0.833333
0.666667 0.333333 0.833333
0.666667 0.333333 1
1 0 0.833333
1 0 0.666667
1 0.333333 0.833333
1 0.166667 0.666667
0.833333 0 0.666667
0.833333 0.166667 0.666667
1 0.166667 0.833333
1 0.333333 0.666667
1.16667 0.5 0.666667
1.33333 0.5 0.833333
1.33333 0.333333 0.833333
1.16667 0.166667 0.666667
1.5 0.5 0.833333
1.5 0.5 0.666667
1.33333 0.5 0.666667
1.33333 0.333333 0.666667
1.16667 0.333333 0.666667
1.16667 0.166667 1
1.33333 0.333333 1
1.5 0.333333 1
1.5 0.166667 1
1.33333 0 1
1.16667 0 1
1.33333 0 0.833333
1.16667 0 0.666667
1.16667 0.166667 0.833333
1.33333 0.166667 0.833333
1.16667 0 0.833333
1.33333 0.166667 1
1.16667 0.5 1
1.33333 0.5 1
1.16667 0.5 0.833333
1.16667 0.333333 0.833333
1.16667 0.333333 1
1.5 0 0.833333
1.5 0 0.666667
1.5 0.333333 0.833333
1.5 0.166667 0.666667
1.33333 0 0.666667
1.33333 0.166667 0.666667
1.5 0.166667 0.833333
1.5 0.333333 0.666667
1.66667 0.5 0.666667
1.83333 0.5 0.833333
1.83333 0.333333 0.833333
1.66667 0.166667 0.666667
2 0.5 0.833333
2 0.5 0.666667
1.83333 0.5 0.666667
1.83333 0.333333 0.666667
1.66667 0.333333 0.666667
1.66667 0.166667 1
1.83333 0.333333 1
2 0.333333 1
2 0.166667 1
1.83333 0 1
1.66667 0 1
1.83333 0 0.833333
1.66667 0 0.666667
1.66667 0.166667 0.833333
1.83333 0.166667 0.833333
1.66667 0 0.833333
1.83333 0.166667 1
1.66667 0.5 1
1.83333 0.5 1
1.66667 0.5 0.833333
1.66667 0.333333 0.833333
1.66667 0.333333 1
2 0 0.833333
2 0 0.666667
2 0.333333 0.833333
2 0.166667 0.666667
1.83333 0 0.666667
1.83333 0.166667 0.666667
2 0.166667 0.833333
2 0.333333 0.666667
0.166667 1 0.666667
0.333333 1 0.833333
0.333333 0.833333 0.833333
0.166667 0.666667 0.666667
0.5 1 0.833333
0.5 1 0.666667
0.333333 1 0.666667
[...]
POINT_DATA 637
SCALARS weights float 1
LOOKUP_TABLE default
6.25 8.33333 8.33333 8.33333 2.08333 8.33333 12.5 12.5 12.5 4.16667 2.08333 4.16667 4.16667 4.16667 2.08333 8.33333 12.5 12.5 12.5 4.16667 12.5 25 25 25 12.5 4.16667 12.5 12.5 12.5 8.33333 2.08333 4.16667 4.16667 4.16667 2.08333 4.16667 12.5 12.5 12.5 8.33333 2.08333 8.33333 8.33333 8.33333 6.25 2.08333 2.08333 4.16667 4.16667 6.25 6.25 2.08333 2.08333 3.125 3.125 6.25 6.25 1.04167 2.08333 2.08333 2.08333 4.16667 4.16667 6.25 6.25 3.125 3.125 2.08333 2.08333 2.08333 2.08333 2.08333 2.08333 1.04167 2.08333 3.125 3.125 2.08333 2.08333 6.25 6.25 2.08333 2.08333 1.04167 3.125 3.125 2.08333 1.04167 3.125 3.125 2.08333 2.08333 4.16667 4.16667 1.04167 2.08333 2.08333 3.125 3.125 1.04167 2.08333 4.16667 4.16667 6.25 6.25 2.08333 2.08333 3.125 3.125 6.25 6.25 1.04167 2.08333 2.08333 2.08333 4.16667 4.16667 6.25 6.25 3.125 3.125 2.08333 2.08333 2.08333 2.08333 1.04167 2.08333 6.25 6.25 2.08333 2.08333 2.08333 3.125 3.125 2.08333 2.08333 4.16667 4.16667 1.04167 2.08333 2.08333 3.125 3.125 1.04167 2.08333 4.16667 4.16667 6.25 6.25 2.08333 2.08333 3.125 3.125 6.25 6.25 1.04167 2.08333 2.08333 2.08333 4.16667 4.16667 6.25 6.25 3.125 3.125 2.08333 2.08333 2.08333 2.08333 1.04167 2.08333 6.25 6.25 2.08333 2.08333 2.08333 3.125 3.125 2.08333 2.08333 4.16667 4.16667 1.04167 2.08333 2.08333 3.125 3.125 1.04167 2.08333 4.16667 4.16667 6.25 6.25 2.08333 2.08333 3.125 3.125 3.125 3.125 1.04167 2.08333 2.08333 2.08333 4.16667 4.16667 3.125 3.125 3.125 3.125 2.08333 2.08333 2.08333 2.08333 1.04167 2.08333 6.25 6.25 2.08333 2.08333 2.08333 1.04167 1.04167 2.08333 2.08333 2.08333 2.08333 1.04167 2.08333 1.04167 1.04167 1.04167 1.04167 1.04167 2.08333 2.08333 2.08333 2.08333 6.25 6.25 2.08333 2.08333 1.04167 1.04167 3.125 3.125 1.04167 1.04167 2.08333 2.08333 4.16667 4.16667 6.25 6.25 2.08333 2.08333 2.08333 1.04167 1.04167 2.08333 2.08333 3.125 3.125 1.04167 2.08333 1.04167 3.125 3.125 2.08333 1.04167 4.16667 4.16667 2.08333 2.08333 3.125 3.125 1.04167 2.08333 2.08333 2.08333 6.25 6.25 2.08333 2.08333 1.04167 1.04167 3.125 3.125 1.04167 1.04167 2.08333 2.08333 4.16667 4.16667 6.25 6.25 2.08333 2.08333 2.08333 3.125 3.125 1.04167 2.08333 2.08333 4.16667 4.16667 2.08333 2.08333 3.125 3.125 1.04167 2.08333 2.08333 2.08333 6.25 6.25 2.08333 2.08333 1.04167 1.04167 3.125 3.125 1.04167 1.04167 2.08333 2.08333 4.16667 4.16667 6.25 6.25 2.08333 2.08333 2.08333 3.125 3.125 1.04167 2.08333 2.08333 4.16667 4.16667 2.08333 2.08333 3.125 3.125 1.04167 2.08333 2.08333 2.08333 6.25 6.25 2.08333 2.08333 1.04167 1.04167 2.08333 2.08333 1.04167 1.04167 2.08333 2.08333 4.16667 4.16667 3.125 3.125 2.08333 2.08333 2.08333 3.125 3.125 1.04167 2.08333 2.08333 2.08333 2.08333 2.08333 1.04167 1.04167 1.04167 1.04167 1.04167 4.16667 4.16667 6.25 6.25 6.25 6.25 2.08333 2.08333 2.08333 2.08333 2.08333 3.125 3.125 1.04167 1.04167 2.08333 2.08333 2.08333 2.08333 2.08333 2.08333 1.04167 1.04167 3.125 3.125 2.08333 2.08333 3.125 3.125 2.08333 2.08333 1.04167 1.04167 1.04167 1.04167 1.04167 3.125 3.125 4.16667 4.16667 1.04167 2.08333 2.08333 2.08333 4.16667 4.16667 6.25 6.25 6.25 6.25 2.08333 2.08333 2.08333 2.08333 2.08333 3.125 3.125 1.04167 1.04167 2.08333 2.08333 2.08333 2.08333 1.04167 1.04167 3.125 3.125 2.08333 2.08333 1.04167 3.125 3.125 4.16667 4.16667 1.04167 2.08333 2.08333 2.08333 4.16667 4.16667 6.25 6.25 6.25 6.25 2.08333 2.08333 2.08333 2.08333 2.08333 3.125 3.125 1.04167 1.04167 2.08333 2.08333 2.08333 2.08333 1.04167 1.04167 3.125 3.125 2.08333 2.08333 1.04167 3.125 3.125 4.16667 4.16667 1.04167 2.08333 2.08333 2.08333 4.16667 4.16667 6.25 6.25 3.125 3.125 2.08333 2.08333 2.08333 2.08333 2.08333 2.08333 2.08333 1.04167 1.04167 2.08333 2.08333 2.08333 2.08333 1.04167 1.04167 3.125 3.125 2.08333 2.08333 1.04167 1.04167 1.04167 2.08333 2.08333 1.04167 2.08333 1.04167 1.04167 2.08333 2.08333 6.25 6.25 3.125 3.125 1.04167 2.08333 2.08333 2.08333 2.08333 3.125 3.125 2.08333 2.08333 1.04167 1.04167 1.04167 2.08333 2.08333 2.08333 2.08333 1.04167 2.08333 1.04167 1.04167 1.04167 1.04167 1.04167 4.16667 4.16667 2.08333 2.08333 2.08333 2.08333 2.08333 6.25 6.25 3.125 3.125 1.04167 2.08333 2.08333 2.08333 2.08333 3.125 3.125 2.08333 2.08333 1.04167 2.08333 2.08333 1.04167 2.08333 1.04167 4.16667 4.16667 2.08333 2.08333 2.08333 2.08333 2.08333 6.25 6.25 3.125 3.125 1.04167 2.08333 2.08333 2.08333 2.08333 3.125 3.125 2.08333 2.08333 1.04167 2.08333 2.08333 1.04167 2.08333 1.04167 4.16667 4.16667 2.08333 2.08333 2.08333 2.08333 2.08333 6.25 6.25 2.08333 2.08333 1.04167 2.08333 2.08333 2.08333 2.08333 2.08333 2.08333 2.08333 2.08333 1.04167 2.08333 2.08333 1.04167 2.08333 1.04167 2.08333 2.08333 2.08333 1.04167 1.04167 
VECTORS u float
-0.999 0 0  -0.552982 0.156822 0.155932  0.0032444 0.157156 0.155331  0.560355 0.157929 0.16146  0.999 0 0  -0.999 0 0  -0.557511 0.00169969 0.158024  0.00247514 0.00241172 0.155858  0.561799 0.000890434 0.158709  0.999 0 0  -0.999 0 0  -0.548847 -0.152392 0.156657  0.00133264 -0.153184 0.154111  0.553973 -0.154964 0.152743  0.999 0 0  -0.999 0 0  -0.559576 0.159473 -0.000653714  0.00232422 0.156087 -1.54078e-05  0.562713 0.157805 -0.000432909  0.999 0 0  -0.999 0 0  -0.565898 0.000426829 0.0016284  0.00215423 0.000462353 -0.000227034  0.569624 -0.00236315 -0.00295898  0.999 0 0  -0.999 0 0  -0.559308 -0.152974 -0.00184435  0.00162709 -0.15486 -0.000625074  0.561677 -0.159402 -0.000969708  0.999 0 0  -0.999 0 0  -0.555724 0.154379 -0.153788  0.00190151 0.153755 -0.155519  0.556286 0.152677 -0.156491  0.999 0 0  -0.999 0 0  -0.560699 -0.00248519 -0.158668  0.00179327 -0.00138283 -0.156195  0.564015 -0.00040257 -0.159997  0.999 0 0  -0.999 0 0  -0.557894 -0.15619 -0.159659  0.00130463 -0.157104 -0.157132  0.556952 -0.156615 -0.156034  0.999 0 0  -0.999 1.49012e-08 0  -0.999 0 0  -0.927185 0.000866175 0.0859452  -0.752635 0.00152469 0.0526762  -0.752303 0.053391 0.0501999  -0.924496 0.0758667 0.076227  -0.904371 0.0697243 0.131578  -0.74227 0.05283 0.155039  -0.904419 0.00384533 0.148279  -0.742113 0.00391531 0.162539  -0.56274 -0.000855923 0.053278  -0.560229 0.000402033 0.105748  -0.90949 0.0346646 0.139617  -0.749428 0.00191814 0.107372  -0.74443 0.0536326 0.103951  -0.92521 0.035754 0.0870759  -0.926973 0.0854948 -0.000396937  -0.75309 0.0565597 -0.00111765  -0.563082 0.0524118 -0.00198522  -0.560663 0.106207 -0.00186694  -0.741651 0.165458 0.00210655  -0.906267 0.141871 0.00117695  -0.999 0 0  -0.999 0 0  -0.741464 0.158338 0.0526477  -0.905592 0.131651 0.0731  -0.928891 0.0833079 0.0381362  -0.746981 0.107081 0.0517389  -0.913618 0.135714 0.0343838  -0.75076 0.110473 -0.000772446  -0.999 0 1.49012e-08  -0.999 0 0  -0.999 0 0  -0.999 0 0  -0.925983 0.000126183 -0.00148892  -0.75835 0.00201905 -0.00180218  -0.927393 0.0022462 0.0397742  -0.925467 0.0392215 0.0402803  -0.999 0 1.49012e-08  -0.999 1.49012e-08 0  -0.999 0 0  -0.925055 0.0432712 -0.00109452  -0.999 1.49012e-08 0  -0.557229 0.155036 0.0504494  -0.556049 0.154752 0.10326  -0.878367 0.114009 0.118572  -0.727472 0.151792 0.154417  -0.559581 0.0509831 0.0496615  -0.558115 0.103673 0.101438  -0.739115 0.153482 0.103734  -0.745293 0.103489 0.101969  -0.557587 0.10306 0.0492166  -0.557423 0.053127 0.153592  -0.556885 0.105047 0.15305  -0.739421 0.102605 0.152395  -0.55722 0.0517155 0.101402  -0.372296 0.00144714 0.104024  -0.185261 0.000842512 0.0515455  -0.185228 0.0521472 0.0507652  -0.371414 0.104516 0.102681  -0.370805 0.105317 0.154006  -0.184079 0.0533978 0.154399  -0.370912 0.0022909 0.155768  -0.184171 0.00269502 0.155288  0.0023241 0.00110424 0.0513073  0.00283706 0.00149965 0.103292  -0.371487 0.0536283 0.152995  -0.184936 0.00148284 0.103326  -0.183621 0.0528238 0.1026  -0.37249 0.0527747 0.102083  -0.373226 0.104484 -0.000331372  -0.185501 0.0519101 -0.000376612  0.00219119 0.0518874 -0.000255942  0.00275493 0.103741 -0.000302672  -0.185168 0.156064 0.000647306  -0.37242 0.15689 0.000216782  -0.184374 0.155862 0.0514956  -0.370673 0.155649 0.103515  -0.372598 0.10349 0.0509305  -0.1839 0.104082 0.051068  -0.371615 0.154113 0.051418  -0.185474 0.1039 -0.000245661  -0.375695 0.000454128 6.87838e-05  -0.186046 0.000379086 -0.000169665  -0.373493 0.000481188 0.0518397  -0.371477 0.0523702 0.0508578  -0.373182 0.0521517 -0.000952363  0.00316954 0.155883 0.0509934  0.0039016 0.156311 0.10347  -0.369255 0.157431 0.155998  -0.184003 0.158202 0.156603  0.0024631 0.0524881 0.0512168  0.00325751 0.104719 0.103035  -0.184751 0.154811 0.10339  -0.184725 0.104529 0.102842  0.00375307 0.10422 0.0513824  0.0031985 0.0529698 0.154483  0.00387514 0.105273 0.154522  -0.184741 0.105175 0.153097  0.00377488 0.0530038 0.102841  0.188788 0.00146157 0.103278  0.378028 0.0012567 0.0515901  0.376632 0.0524427 0.0510669  0.189167 0.105369 0.103948  0.188543 0.105434 0.154628  0.375742 0.0522066 0.154915  0.189316 0.00234735 0.155575  0.37764 0.00286663 0.156904  0.568347 0.00258523 0.0513884  0.564994 0.00341225 0.104656  0.189134 0.0537685 0.153104  0.376897 0.00196826 0.104052  0.377717 0.0535385 0.103303  0.188435 0.0531329 0.102615  0.189237 0.104092 -0.000112027  0.377963 0.0524742 6.00219e-05  0.567428 0.051937 0.00169092  0.564438 0.104676 0.00210625  0.3786 0.157234 0.000859439  0.190365 0.156221 0.000605464  0.376427 0.155939 0.0508443  0.188403 0.156215 0.103554  0.188828 0.103858 0.0516609  0.378027 0.104505 0.0524815  0.18953 0.154275 0.0517342  0.376928 0.104769 0.000661254  0.190314 0.000467956 -0.00032115  0.380016 -0.000150591 -0.000899911  0.189974 0.00104922 0.0515928  0.189782 0.0528261 0.0515793  0.190068 0.0523717 -0.000192076  0.564838 0.152282 0.0504749  0.562846 0.149894 0.104487  0.190162 0.157786 0.156276  0.379244 0.158266 0.158589  0.564202 0.0522298 0.0511373  0.558751 0.105263 0.103354  0.378576 0.15477 0.103905  0.375221 0.104281 0.102959  0.560235 0.103686 0.0514225  0.564708 0.051271 0.151377  0.563441 0.104509 0.150293  0.377218 0.105345 0.152746  0.561549 0.0528326 0.102326  0.75019 0.00310397 0.105525  0.925391 -0.0010922 0.0401739  0.923924 0.0356762 0.0347839  0.744466 0.100662 0.0986509  0.731958 0.100609 0.154378  0.921304 0.0368074 0.136846  0.743685 0.00479847 0.165184  0.922514 0.0011254 0.138131  0.999 0 0  0.999 0 0  0.736665 0.0498461 0.16056  0.920825 0.00323761 0.0873433  0.920657 0.0380299 0.0828974  0.74803 0.051143 0.103816  0.752594 0.107136 0.00164121  0.928767 0.041114 5.56111e-05  0.999 0 0  0.999 0 0  0.924667 0.135551 0.00445706  0.747247 0.166423 0.00674576  0.918676 0.134756 0.0419872  0.731489 0.154823 0.102531  0.748615 0.106506 0.0499326  0.920843 0.0854532 0.0357395  0.737189 0.162578 0.0540246  0.925476 0.0854769 0.00170732  0.764693 0.000885785 0.000437081  0.928361 -0.000286698 -0.000743628  0.757066 0.000585675 0.0513338  0.758079 0.0513482 0.051026  0.758282 0.0517368 0.00119102  0.999 0 0  0.999 0 0  0.722708 0.147801 0.158038  0.912314 0.114305 0.133545  0.999 0 0  0.999 0 0  0.909912 0.129195 0.0841891  0.914188 0.0772034 0.0759434  0.999 1.49012e-08 0  0.999 0 0  0.999 0 0  0.915598 0.0738733 0.12373  0.999 0 1.49012e-08  -0.999 0 0  -0.999 0 0  -0.917248 -0.122576 0.0753663  -0.729542 -0.156411 0.0461018  -0.745814 -0.103885 0.0488452  -0.924662 -0.0326248 0.084121  -0.901958 -0.0332297 0.138467  -0.733901 -0.0967158 0.149973  -0.893189 -0.109623 0.132199  -0.724225 -0.149732 0.142637  -0.55839 -0.149507 0.0529466  -0.55373 -0.149332 0.105863  -0.901785 -0.0710466 0.132165  -0.728379 -0.151105 0.0942297  -0.73605 -0.0983019 0.100461  -0.913852 -0.0766597 0.0823851  -0.923458 -0.040273 -0.000262797  -0.747734 -0.107647 -0.00243324  -0.559374 -0.10121 -0.00257859  -0.561992 -0.0504978 -0.00202197  -0.927028 -0.036966 0.0400309  -0.750477 -0.0504813 0.0537851  -0.753863 -0.0523841 -0.00189945  -0.999 0 1.49012e-08  -0.999 0 0  -0.999 0 0  -0.999 0 0  -0.920966 -0.1384 0.00123912  -0.738083 -0.165788 -0.00113454  -0.917785 -0.131355 0.0358945  -0.920127 -0.0806475 0.0388749  -0.999 0 1.49012e-08  -0.999 0 0  -0.999 0 0  -0.9193 -0.0866626 -0.00273451  -0.999 0 0  -0.555488 -0.102239 0.0471745  -0.557416 -0.050337 0.101744  -0.749216 -0.0471802 0.107782  -0.556663 -0.0510679 0.0499372  -0.551568 -0.102109 0.151133  -0.556621 -0.0506001 0.152914  -0.742038 -0.0467245 0.158411  -0.552148 -0.100477 0.100035  -0.369648 -0.152608 0.102711  -0.184403 -0.153685 0.0506942  -0.184739 -0.102926 0.0500825  -0.371493 -0.0501884 0.103058  -0.370627 -0.0499936 0.154297  -0.18354 -0.101767 0.153421  -0.368165 -0.152569 0.15333  -0.183742 -0.152817 0.153352  0.00123572 -0.153535 0.0510508  0.00135553 -0.152561 0.10292  -0.369492 -0.101714 0.151976  -0.183848 -0.15168 0.102156  -0.183245 -0.101284 0.102053  -0.370568 -0.101524 0.101583  -0.374682 -0.0516456 -0.000946075  -0.184888 -0.103199 -0.00104329  0.00136042 -0.102858 -0.000697047  0.00186574 -0.0511187 -0.000650227  -0.373942 -0.051026 0.0510075  -0.18421 -0.0507321 0.0510015  -0.186113 -0.0514044 -0.000789762  -0.374529 -0.155689 -0.00266415  -0.185895 -0.155638 -0.00164226  -0.372791 -0.152258 0.0505398  -0.370363 -0.101893 0.0501641  -0.373562 -0.103431 -0.00158042  0.00178814 -0.10241 0.0506831  0.00248289 -0.0495517 0.103174  -0.184783 -0.0500371 0.102376  0.00296688 -0.0507694 0.0511995  0.0023371 -0.101619 0.153474  0.00265777 -0.0496129 0.154102  -0.184688 -0.0500293 0.1529  0.00287664 -0.101223 0.102179  0.187333 -0.152772 0.1028  0.374838 -0.153968 0.0508377  0.375238 -0.102735 0.0505298  0.188743 -0.0494275 0.103359  0.188242 -0.0498866 0.15407  0.373635 -0.101606 0.153228  0.186936 -0.15271 0.153594  0.371891 -0.152606 0.153099  0.561684 -0.153635 0.0513153  0.556894 -0.150578 0.102788  0.187651 -0.101308 0.152445  0.373636 -0.15129 0.102456  0.374543 -0.100902 0.101962  0.187148 -0.101352 0.101983  0.189312 -0.0513158 -0.000532329  0.376229 -0.104268 -0.000904173  0.564023 -0.106352 0.000380397  0.566625 -0.0535352 0.000779867  0.188303 -0.0505535 0.0509338  0.37772 -0.0505872 0.0513251  0.377265 -0.0518001 7.33137e-06  0.188214 -0.155254 -0.0016124  0.375011 -0.156253 -0.00145903  0.188469 -0.152345 0.0510591  0.188666 -0.101781 0.0506909  0.188882 -0.103301 -0.000867307  0.562176 -0.101915 0.0503931  0.560091 -0.0464287 0.103266  0.37418 -0.0494534 0.102092  0.563822 -0.0490147 0.0517732  0.558695 -0.103368 0.149633  0.562218 -0.0511272 0.151603  0.376434 -0.0494195 0.152778  0.558539 -0.0989923 0.10057  0.738625 -0.149866 0.0985589  0.905337 -0.137849 0.0335978  0.927187 -0.082643 0.0361016  0.749716 -0.0478459 0.102344  0.732973 -0.0437605 0.154712  0.919838 -0.0756453 0.123757  0.732008 -0.140563 0.152396  0.898236 -0.130673 0.111193  0.999 0 0  0.999 0 0  0.732401 -0.0923979 0.150459  0.905637 -0.132184 0.072647  0.92153 -0.0802744 0.0771638  0.741545 -0.100468 0.0982495  0.756878 -0.0547073 -0.000194341  0.929631 -0.084861 -0.000937074  0.999 0 0  0.999 0 0  0.755096 -0.0547382 0.051143  0.927914 -0.0397031 0.0386721  0.929344 -0.0419185 0.000216186  0.745048 -0.163415 -0.00398308  0.905437 -0.143415 -0.00361067  0.745337 -0.158957 0.0477137  0.753097 -0.109431 0.0475026  0.752825 -0.109175 -0.000889093  0.999 0 0  0.999 0 0  0.922352 -0.0373535 0.0831751  0.999 0 0  0.999 0 0  0.999 0 0  0.918889 -0.035513 0.131401  0.999 0 1.49012e-08  -0.923033 -0.000950009 -0.0438352  -0.746949 -0.00341868 -0.109551  -0.746623 0.0491182 -0.103013  -0.921888 0.0847058 -0.038009  -0.560169 -0.00321075 -0.105695  -0.563907 -0.00185826 -0.0524908  -0.753838 8.64863e-05 -0.0545469  -0.750455 0.055494 -0.0524222  -0.923546 0.038622 -0.0386438  -0.917025 0.0782034 -0.126813  -0.729353 0.0464863 -0.15701  -0.55824 0.0498673 -0.152946  -0.555485 0.102785 -0.151061  -0.726884 0.142019 -0.154541  -0.900728 0.130579 -0.113452  -0.999 0 0  -0.999 0 0  -0.734423 0.151603 -0.101803  -0.90553 0.138122 -0.0351747  -0.922759 0.0793794 -0.0783404  -0.740356 0.102107 -0.099261  -0.904507 0.130292 -0.0749976  -0.730584 0.0923397 -0.152578  -0.999 0 0  -0.999 0 0  -0.999 0 0  -0.999 0 0  -0.92707 -0.00678298 -0.145432  -0.744045 -0.00419018 -0.169618  -0.925568 -0.000358224 -0.0935856  -0.918268 0.0357448 -0.0860078  -0.999 0 0  -0.999 1.49012e-08 0  -0.999 0 0  -0.916537 0.0358099 -0.134121  -0.999 1.49012e-08 0  -0.552953 0.150245 -0.104548  -0.556691 0.153093 -0.0530205  -0.557159 0.0472273 -0.103724  -0.557966 0.102878 -0.0513123  -0.742577 0.161414 -0.0494704  -0.74959 0.110116 -0.0497232  -0.553301 0.099349 -0.102192  -0.558383 0.0499094 -0.0527716  -0.37445 -0.000394553 -0.0526938  -0.1856 -0.000916779 -0.104685  -0.184935 0.0498824 -0.104563  -0.372811 0.103111 -0.0517443  0.00121987 -0.000856638 -0.103937  0.00182939 -0.000397712 -0.0519351  -0.186365 -0.000317484 -0.0524457  -0.184636 0.0510642 -0.0520251  -0.374169 0.0512024 -0.0524094  -0.372187 0.102219 -0.154574  -0.184405 0.0508527 -0.155295  0.00174069 0.0506927 -0.154726  0.00196505 0.102592 -0.154411  -0.184242 0.154119 -0.154421  -0.370737 0.154384 -0.153913  -0.18428 0.153939 -0.103551  -0.371794 0.154685 -0.0520326  -0.371815 0.101347 -0.103166  -0.183889 0.102293 -0.10288  -0.37057 0.151665 -0.10368  -0.184381 0.102366 -0.153493  -0.37503 -0.00165397 -0.15813  -0.186387 -0.00141668 -0.157035  -0.373249 -0.00118783 -0.105451  -0.37094 0.050172 -0.103395  -0.372701 0.0503909 -0.15426  0.00226986 0.153954 -0.103827  0.0026629 0.154718 -0.0519121  0.00190818 0.0504603 -0.103891  0.00254166 0.103328 -0.0515986  -0.18537 0.153333 -0.0519772  -0.185338 0.102446 -0.0517373  0.00292337 0.102317 -0.103048  0.00290728 0.0513442 -0.0522237  0.189173 -0.000285894 -0.0520087  0.376637 -0.00054881 -0.104621  0.375196 0.0509725 -0.103324  0.189039 0.103719 -0.0510132  0.564748 0.000110328 -0.106881  0.566978 0.000393271 -0.0538462  0.376891 5.22733e-05 -0.0524063  0.377173 0.0516504 -0.0516663  0.188092 0.0513108 -0.0516905  0.187598 0.10245 -0.154397  0.374524 0.051214 -0.154524  0.559214 0.0514151 -0.154638  0.554841 0.102644 -0.15207  0.372807 0.152446 -0.154852  0.187459 0.152674 -0.155261  0.374046 0.15352 -0.103319  0.188399 0.154493 -0.051746  0.187186 0.102142 -0.102914  0.374221 0.102456 -0.102247  0.187733 0.15253 -0.103336  0.373019 0.102338 -0.152593  0.188859 -0.00155663 -0.155916  0.376348 -0.00108141 -0.156773  0.188996 -0.000715971 -0.103849  0.188782 0.0509551 -0.10283  0.188788 0.051084 -0.153362  0.558174 0.150574 -0.104848  0.560788 0.152663 -0.0520946  0.562217 0.0513484 -0.102919  0.56031 0.103473 -0.0478153  0.375907 0.153254 -0.0513067  0.374372 0.102637 -0.0509382  0.558376 0.101931 -0.100063  0.5643 0.0520225 -0.050075  0.755894 -2.19345e-05 -0.0553661  0.928441 -0.00114995 -0.0855765  0.929111 0.0370466 -0.0816114  0.752686 0.103389 -0.0481726  0.999 0 0  0.999 0 0  0.926676 0.000347853 -0.0423713  0.928673 0.0384368 -0.0396262  0.75602 0.0504279 -0.0547646  0.738248 0.100757 -0.150242  0.905267 0.0351582 -0.137879  0.999 0 0  0.999 0 0  0.897291 0.11263 -0.132452  0.732293 0.153976 -0.140905  0.919271 0.125685 -0.0780277  0.733121 0.155638 -0.0448854  0.742665 0.099112 -0.100858  0.923835 0.0787405 -0.0794324  0.733585 0.151997 -0.0929443  0.903593 0.0738208 -0.132303  0.746025 -0.0027459 -0.161185  0.903224 -0.00216335 -0.144295  0.752377 -0.000108004 -0.108856  0.75245 0.0480456 -0.10928  0.744549 0.0487147 -0.159146  0.999 0 0  0.999 0 0  0.999 0 0  0.999 0 0  0.919511 0.13284 -0.0368858  0.923494 0.084613 -0.0389471  0.999 1.49012e-08 0  0.999 0 0  -0.916081 -0.134274 -0.0329125  -0.724286 -0.154337 -0.0965941  -0.738928 -0.101528 -0.0997244  -0.919108 -0.0345831 -0.0383298  -0.557774 -0.148574 -0.10356  -0.559141 -0.150363 -0.0513532  -0.731708 -0.162377 -0.0471416  -0.742183 -0.105445 -0.0503213  -0.91208 -0.0821846 -0.0364934  -0.916624 -0.0409662 -0.137388  -0.725956 -0.109576 -0.153709  -0.557566 -0.10192 -0.15079  -0.558283 -0.0505557 -0.152851  -0.920016 -0.0352774 -0.089372  -0.743733 -0.052496 -0.105488  -0.734777 -0.0554945 -0.162625  -0.999 0 0  -0.999 0 0  -0.999 0 0  -0.999 0 0  -0.910056 -0.136025 -0.106016  -0.714679 -0.165715 -0.142839  -0.912