# vtk DataFile Version 5.1
vtk output
ASCII

DATASET UNSTRUCTURED_GRID
POINTS 637 float
0 0 0
0.166667 0 0
0.333333 0 0
0.5 0 0
0.666667 0 0
0.833333 0 0
1 0 0
1.16667 0 0
1.33333 0 0
1.5 0 0
1.66667 0 0
1.83333 0 0
2 0 0
0 0.166667 0
0.166667 0.166667 0
0.333333 0.166667 0
0.5 0.166667 0
0.666667 0.166667 0
0.833333 0.166667 0
1 0.166667 0
1.16667 0.166667 0
1.33333 0.166667 0
1.5 0.166667 0
1.66667 0.166667 0
1.83333 0.166667 0
2 0.166667 0
0 0.333333 0
0.166667 0.333333 0
0.333333 0.333333 0
0.5 0.333333 0
0.666667 0.333333 0
0.833333 0.333333 0
1 0.333333 0
1.16667 0.333333 0
1.33333 0.333333 0
1.5 0.333333 0
1.66667 0.333333 0
1.83333 0.333333 0
2 0.333333 0
0 0.5 0
0.166667 0.5 0
0.333333 0.5 0
0.5 0.5 0
0.666667 0.5 0
0.833333 0.5 0
1 0.5 0
1.16667 0.5 0
1.33333 0.5 0
1.5 0.5 0
1.66667 0.5 0
1.83333 0.5 0
2 0.5 0
0 0.666667 0
0.166667 0.666667 0
0.333333 0.666667 0
0.5 0.666667 0
0.666667 0.666667 0
0.833333 0.666667 0
1 0.666667 0
1.16667 0.666667 0
1.33333 0.666667 0
1.5 0.666667 0
1.66667 0.666667 0
1.83333 0.666667 0
2 0.666667 0
0 0.833333 0
0.166667 0.833333 0
0.333333 0.833333 0
0.5 0.833333 0
0.666667 0.833333 0
0.833333 0.833333 0
1 0.833333 0
1.16667 0.833333 0
1.33333 0.833333 0
1.5 0.833333 0
1.66667 0.833333 0
1.83333 0.833333 0
2 0.833333 0
0 1 0
0.166667 1 0
0.333333 1 0
0.5 1 0
0.666667 1 0
0.833333 1 0
1 1 0
1.16667 1 0
1.33333 1 0
1.5 1 0
1.66667 1 0
1.83333 1 0
2 1 0
0 0 0.166667
0.166667 0 0.166667
0.333333 0 0.166667
0.5 0 0.166667
0.666667 0 0.166667
0.833333 0 0.166667
1 0 0.166667
1.16667 0 0.166667
1.33333 0 0.166667
1.5 0 0.166667
1.66667 0 0.166667
1.83333 0 0.166667
2 0 0.166667
0 0.166667 0.166667
0.166667 0.166667 0.166667
0.333333 0.166667 0.166667
0.5 0.166667 0.166667
0.666667 0.166667 0.166667
0.833333 0.166667 0.166667
1 0.166667 0.166667
1.16667 0.166667 0.166667
1.33333 0.166667 0.166667
1.5 0.166667 0.166667
1.66667 0.166667 0.166667
1.83333 0.166667 0.166667
2 0.166667 0.166667
0 0.333333 0.166667
0.166667 0.333333 0.166667
0.333333 0.333333 0.166667
0.5 0.333333 0.166667
0.666667 0.333333 0.166667
0.833333 0.333333 0.166667
1 0.333333 0.166667
1.16667 0.333333 0.166667
1.33333 0.333333 0.166667
1.5 0.333333 0.166667
1.66667 0.333333 0.166667
1.83333 0.333333 0.166667
2 0.333333 0.166667
0 0.5 0.166667
0.166667 0.5 0.166667
0.333333 0.5 0.166667
0.5 0.5 0.166667
0.666667 0.5 0.166667
0.833333 0.5 0.166667
1 0.5 0.166667
1.16667 0.5 0.166667
1.33333 0.5 0.166667
1.5 0.5 0.166667
1.66667 0.5 0.166667
1.83333 0.5 0.166667
2 0.5 0.166667
0 0.666667 0.166667
0.166667 0.666667 0.166667
0.333333 0.666667 0.166667
0.5 0.666667 0.166667
0.666667 0.666667 0.166667
0.833333 0.666667 0.166667
1 0.666667 0.166667
1.16667 0.666667 0.166667
1.33333 0.666667 0.166667
1.5 0.666667 0.166667
1.66667 0.666667 0.166667
1.83333 0.666667 0.166667
2 0.666667 0.166667
0 0.833333 0.166667
0.166667 0.833333 0.166667
0.333333 0.833333 0.166667
0.5 0.833333 0.166667
0.666667 0.833333 0.166667
0.833333 0.833333 0.166667
1 0.833333 0.166667
1.16667 0.833333 0.166667
1.33333 0.833333 0.166667
1.5 0.833333 0.166667
1.66667 0.833333 0.166667
1.83333 0.833333 0.166667
2 0.833333 0.166667
0 1 0.166667
0.166667 1 0.166667
0.333333 1 0.166667
0.5 1 0.166667
0.666667 1 0.166667
0.833333 1 0.166667
1 1 0.166667
1.16667 1 0.166667
1.33333 1 0.166667
1.5 1 0.166667
1.66667 1 0.166667
1.83333 1 0.166667
2 1 0.166667
0 0 0.333333
0.166667 0 0.333333
0.333333 0 0.333333
0.5 0 0.333333
0.666667 0 0.333333
0.833333 0 0.333333
1 0 0.333333
1.16667 0 0.333333
1.33333 0 0.333333
1.5 0 0.333333
1.66667 0 0.333333
1.83333 0 0.333333
2 0 0.333333
0 0.166667 0.333333
0.166667 0.166667 0.333333
0.333333 0.166667 0.333333
0.5 0.166667 0.333333
0.666667 0.166667 0.333333
0.833333 0.166667 0.333333
1 0.166667 0.333333
1.16667 0.166667 0.333333
1.33333 0.166667 0.333333
1.5 0.166667 0.333333
1.66667 0.166667 0.333333
1.83333 0.166667 0.333333
2 0.166667 0.333333
0 0.333333 0.333333
0.166667 0.333333 0.333333
0.333333 0.333333 0.333333
0.5 0.333333 0.333333
0.666667 0.333333 0.333333
0.833333 0.333333 0.333333
1 0.333333 0.333333
1.16667 0.333333 0.333333
1.33333 0.333333 0.333333
1.5 0.333333 0.333333
1.66667 0.333333 0.333333
1.83333 0.333333 0.333333
2 0.333333 0.333333
0 0.5 0.333333
0.166667 0.5 0.333333
0.333333 0.5 0.333333
0.5 0.5 0.333333
0.666667 0.5 0.333333
0.833333 0.5 0.333333
1 0.5 0.333333
1.16667 0.5 0.333333
1.33333 0.5 0.333333
1.5 0.5 0.333333
1.66667 0.5 0.333333
1.83333 0.5 0.333333
2 0.5 0.333333
0 0.666667 0.333333
0.166667 0.666667 0.333333
0.333333 0.666667 0.333333
0.5 0.666667 0.333333
0.666667 0.666667 0.333333
0.833333 0.666667 0.333333
1 0.666667 0.333333
1.16667 0.666667 0.333333
1.33333 0.666667 0.333333
1.5 0.666667 0.333333
1.66667 0.666667 0.333333
1.83333 0.666667 0.333333
2 0.666667 0.333333
0 0.833333 0.333333
0.166667 0.833333 0.333333
0.333333 0.833333 0.333333
0.5 0.833333 0.333333
0.666667 0.833333 0.333333
0.833333 0.833333 0.333333
1 0.833333 0.333333
1.16667 0.833333 0.333333
1.33333 0.833333 0.333333
1.5 0.833333 0.333333
1.66667 0.833333 0.333333
1.83333 0.833333 0.333333
2 0.833333 0.333333
0 1 0.333333
0.166667 1 0.333333
0.333333 1 0.333333
0.5 1 0.333333
0.666667 1 0.333333
0.833333 1 0.333333
1 1 0.333333
1.16667 1 0.333333
1.33333 1 0.333333
1.5 1 0.333333
1.66667 1 0.333333
1.83333 1 0.333333
2 1 0.333333
0 0 0.5
0.166667 0 0.5
0.333333 0 0.5
0.5 0 0.5
0.666667 0 0.5
0.833333 0 0.5
1 0 0.5
1.16667 0 0.5
1.33333 0 0.5
1.5 0 0.5
1.66667 0 0.5
1.83333 0 0.5
2 0 0.5
0 0.166667 0.5
0.166667 0.166667 0.5
0.333333 0.166667 0.5
0.5 0.166667 0.5
0.666667 0.166667 0.5
0.833333 0.166667 0.5
1 0.166667 0.5
1.16667 0.166667 0.5
1.33333 0.166667 0.5
1.5 0.166667 0.5
1.66667 0.166667 0.5
1.83333 0.166667 0.5
2 0.166667 0.5
0 0.333333 0.5
0.166667 0.333333 0.5
0.333333 0.333333 0.5
0.5 0.333333 0.5
0.666667 0.333333 0.5
0.833333 0.333333 0.5
1 0.333333 0.5
1.16667 0.333333 0.5
1.33333 0.333333 0.5
1.5 0.333333 0.5
1.66667 0.333333 0.5
1.83333 0.333333 0.5
2 0.333333 0.5
0 0.5 0.5
0.166667 0.5 0.5
0.333333 0.5 0.5
0.5 0.5 0.5
0.666667 0.5 0.5
0.833333 0.5 0.5
1 0.5 0.5
1.16667 0.5 0.5
1.33333 0.5 0.5
1.5 0.5 0.5
1.66667 0.5 0.5
1.83333 0.5 0.5
2 0.5 0.5
0 0.666667 0.5
0.166667 0.666667 0.5
0.333333 0.666667 0.5
0.5 0.666667 0.5
0.666667 0.666667 0.5
0.833333 0.666667 0.5
1 0.666667 0.5
1.16667 0.666667 0.5
1.33333 0.666667 0.5
1.5 0.666667 0.5
1.66667 0.666667 0.5
1.83333 0.666667 0.5
2 0.666667 0.5
0 0.833333 0.5
0.166667 0.833333 0.5
0.333333 0.833333 0.5
0.5 0.833333 0.5
0.666667 0.833333 0.5
0.833333 0.833333 0.5
1 0.833333 0.5
1.16667 0.833333 0.5
1.33333 0.833333 0.5
1.5 0.833333 0.5
1.66667 0.833333 0.5
1.83333 0.833333 0.5
2 0.833333 0.5
0 1 0.5
0.166667 1 0.5
0.333333 1 0.5
0.5 1 0.5
0.666667 1 0.5
0.833333 1 0.5
1 1 0.5
1.16667 1 0.5
1.33333 1 0.5
1.5 1 0.5
1.66667 1 0.5
1.83333 1 0.5
2 1 0.5
0 0 0.666667
0.166667 0 0.666667
0.333333 0 0.666667
0.5 0 0.666667
0.666667 0 0.666667
0.833333 0 0.666667
1 0 0.666667
1.16667 0 0.666667
1.33333 0 0.666667
1.5 0 0.666667
1.66667 0 0.666667
1.83333 0 0.666667
2 0 0.666667
0 0.166667 0.666667
0.166667 0.166667 0.666667
0.333333 0.166667 0.666667
0.5 0.166667 0.666667
0.666667 0.166667 0.666667
0.833333 0.166667 0.666667
1 0.166667 0.666667
1.16667 0.166667 0.666667
1.33333 0.166667 0.666667
1.5 0.166667 0.666667
1.66667 0.166667 0.666667
1.83333 0.166667 0.666667
2 0.166667 0.666667
0 0.333333 0.666667
0.166667 0.333333 0.666667
0.333333 0.333333 0.666667
0.5 0.333333 0.666667
0.666667 0.333333 0.666667
0.833333 0.333333 0.666667
1 0.333333 0.666667
1.16667 0.333333 0.666667
1.33333 0.333333 0.666667
1.5 0.333333 0.666667
1.66667 0.333333 0.666667
1.83333 0.333333 0.666667
2 0.333333 0.666667
0 0.5 0.666667
0.166667 0.5 0.666667
0.333333 0.5 0.666667
0.5 0.5 0.666667
0.666667 0.5 0.666667
0.833333 0.5 0.666667
1 0.5 0.666667
1.16667 0.5 0.666667
1.33333 0.5 0.666667
1.5 0.5 0.666667
1.66667 0.5 0.666667
1.83333 0.5 0.666667
2 0.5 0.666667
0 0.666667 0.666667
0.166667 0.666667 0.666667
0.333333 0.666667 0.666667
0.5 0.666667 0.666667
0.666667 0.666667 0.666667
0.833333 0.666667 0.666667
1 0.666667 0.666667
1.16667 0.666667 0.666667
1.33333 0.666667 0.666667
1.5 0.666667 0.666667
1.66667 0.666667 0.666667
1.83333 0.666667 0.666667
2 0.666667 0.666667
0 0.833333 0.666667
0.166667 0.833333 0.666667
0.333333 0.833333 0.666667
0.5 0.833333 0.666667
0.666667 0.833333 0.666667
0.833333 0.833333 0.666667
1 0.833333 0.666667
1.16667 0.833333 0.666667
1.33333 0.833333 0.666667
1.5 0.833333 0.666667
1.66667 0.833333 0.666667
1.83333 0.833333 0.666667
2 0.833333 0.666667
0 1 0.666667
0.166667 1 0.666667
0.333333 1 0.666667
0.5 1 0.666667
0.666667 1 0.666667
0.833333 1 0.666667
1 1 0.666667
1.16667 1 0.666667
1.33333 1 0.666667
1.5 1 0.666667
1.66667 1 0.666667
1.83333 1 0.666667
2 1 0.666667
0 0 0.833333
0.166667 0 0.833333
0.333333 0 0.833333
0.5 0 0.833333
0.666667 0 0.833333
0.833333 0 0.833333
1 0 0.833333
1.16667 0 0.833333
1.33333 0 0.833333
1.5 0 0.833333
1.66667 0 0.833333
1.83333 0 0.833333
2 0 0.833333
0 0.166667 0.833333
0.166667 0.166667 0.833333
0.333333 0.166667 0.833333
0.5 0.166667 0.833333
0.666667 0.166667 0.833333
0.833333 0.166667 0.833333
1 0.166667 0.833333
1.16667 0.166667 0.833333
1.33333 0.166667 0.833333
1.5 0.166667 0.833333
1.66667 0.166667 0.833333
1.83333 0.166667 0.833333
2 0.166667 0.833333
0 0.333333 0.833333
0.166667 0.333333 0.833333
0.333333 0.333333 0.833333
0.5 0.333333 0.833333
0.666667 0.333333 0.833333
0.833333 0.333333 0.833333
1 0.333333 0.833333
1.16667 0.333333 0.833333
1.33333 0.333333 0.833333
1.5 0.333333 0.833333
1.66667 0.333333 0.833333
1.83333 0.333333 0.833333
2 0.333333 0.833333
0 0.5 0.833333
0.166667 0.5 0.833333
0.333333 0.5 0.833333
0.5 0.5 0.833333
0.666667 0.5 0.833333
0.833333 0.5 0.833333
1 0.5 0.833333
1.16667 0.5 0.833333
1.33333 0.5 0.833333
1.5 0.5 0.833333
1.66667 0.5 0.833333
1.83333 0.5 0.833333
2 0.5 0.833333
0 0.666667 0.833333
0.166667 0.666667 0.833333
[...]
POINT_DATA 637
SCALARS weights float 1
LOOKUP_TABLE default
1.15741 1.54321 1.54321 1.54321 1.54321 1.54321 1.54321 1.54321 1.54321 1.54321 1.54321 1.54321 0.385802 1.54321 2.31482 2.31481 2.31482 2.31482 2.31481 2.31482 2.31482 2.31481 2.31482 2.31482 2.31481 0.771605 1.54321 2.31481 2.31481 2.31482 2.31482 2.31481 2.31482 2.31481 2.31481 2.31482 2.31481 2.31481 0.771605 1.54321 2.31482 2.31482 2.31482 2.31482 2.31481 2.31482 2.31482 2.31481 2.31482 2.31482 2.31481 0.771605 1.54321 2.31482 2.31482 2.31482 2.31482 2.31482 2.31482 2.31482 2.31481 2.31482 2.31482 2.31481 0.771605 1.54321 2.31481 2.31481 2.31481 2.31482 2.31481 2.31482 2.31481 2.31481 2.31482 2.31481 2.31481 0.771605 0.385802 0.771605 0.771605 0.771605 0.771605 0.771605 0.771605 0.771605 0.771605 0.771605 0.771605 0.771605 0.385802 1.54321 2.31482 2.31481 2.31482 2.31482 2.31481 2.31482 2.31482 2.31481 2.31482 2.31482 2.31481 0.771605 2.31482 4.62963 4.62963 4.62963 4.62963 4.62963 4.62963 4.62963 4.62963 4.62963 4.62963 4.62963 2.31481 2.31481 4.62963 4.62963 4.62963 4.62963 4.62963 4.62963 4.62963 4.62963 4.62963 4.62963 4.62963 2.31481 2.31482 4.62963 4.62963 4.62963 4.62963 4.62963 4.62963 4.62963 4.62963 4.62963 4.62963 4.62963 2.31481 2.31482 4.62963 4.62963 4.62963 4.62963 4.62963 4.62963 4.62963 4.62963 4.62963 4.62963 4.62963 2.31481 2.31481 4.62963 4.62963 4.62963 4.62963 4.62963 4.62963 4.62963 4.62963 4.62963 4.62963 4.62963 2.31481 0.771605 2.31481 2.31481 2.31481 2.31481 2.31481 2.31481 2.31481 2.31481 2.31481 2.31481 2.31481 1.54321 1.54321 2.31481 2.31481 2.31482 2.31482 2.31481 2.31482 2.31481 2.31481 2.31482 2.31481 2.31481 0.771605 2.31481 4.62963 4.62963 4.62963 4.62963 4.62963 4.62963 4.62963 4.62963 4.62963 4.62963 4.62963 2.31481 2.31481 4.62963 4.62963 4.62963 4.62963 4.62963 4.62963 4.62963 4.62963 4.62963 4.62963 4.62963 2.31481 2.31482 4.62963 4.62963 4.62963 4.62963 4.62963 4.62963 4.62963 4.62963 4.62963 4.62963 4.62963 2.31481 2.31482 4.62963 4.62963 4.62963 4.62963 4.62963 4.62963 4.62963 4.62963 4.62963 4.62963 4.62963 2.31481 2.31481 4.62963 4.62963 4.62963 4.62963 4.62963 4.62963 4.62963 4.62963 4.62963 4.62963 4.62963 2.31481 0.771605 2.31481 2.31481 2.31481 2.31481 2.31481 2.31481 2.31481 2.31481 2.31481 2.31481 2.31481 1.54321 1.54321 2.31482 2.31482 2.31482 2.31482 2.31481 2.31482 2.31482 2.31481 2.31482 2.31482 2.31481 0.771605 2.31482 4.62963 4.62963 4.62963 4.62963 4.62963 4.62963 4.62963 4.62963 4.62963 4.62963 4.62963 2.31481 2.31482 4.62963 4.62963 4.62963 4.62963 4.62963 4.62963 4.62963 4.62963 4.62963 4.62963 4.62963 2.31481 2.31482 4.62963 4.62963 4.62963 4.62963 4.62963 4.62963 4.62963 4.62963 4.62963 4.62963 4.62963 2.31481 2.31482 4.62963 4.62963 4.62963 4.62963 4.62963 4.62963 4.62963 4.62963 4.62963 4.62963 4.62963 2.31481 2.31481 4.62963 4.62963 4.62963 4.62963 4.62963 4.62963 4.62963 4.62963 4.62963 4.62963 4.62963 2.31481 0.771605 2.31481 2.31481 2.31481 2.31481 2.31481 2.31481 2.31481 2.31481 2.31481 2.31481 2.31481 1.54321 1.54321 2.31482 2.31482 2.31482 2.31482 2.31482 2.31482 2.31482 2.31481 2.31482 2.31482 2.31481 0.771605 2.31482 4.62963 4.62963 4.62963 4.62963 4.62963 4.62963 4.62963 4.62963 4.62963 4.62963 4.62963 2.31481 2.31482 4.62963 4.62963 4.62963 4.62963 4.62963 4.62963 4.62963 4.62963 4.62963 4.62963 4.62963 2.31481 2.31482 4.62963 4.62963 4.62963 4.62963 4.62963 4.62963 4.62963 4.62963 4.62963 4.62963 4.62963 2.31481 2.31482 4.62963 4.62963 4.62963 4.62963 4.62963 4.62963 4.62963 4.62963 4.62963 4.62963 4.62963 2.31481 2.31481 4.62963 4.62963 4.62963 4.62963 4.62963 4.62963 4.62963 4.62963 4.62963 4.62963 4.62963 2.31481 0.771605 2.31481 2.31481 2.31481 2.31481 2.31481 2.31481 2.31481 2.31481 2.31481 2.31481 2.31481 1.54321 1.54321 2.31481 2.31481 2.31481 2.31482 2.31481 2.31482 2.31481 2.31481 2.31482 2.31481 2.31481 0.771605 2.31481 4.62963 4.62963 4.62963 4.62963 4.62963 4.62963 4.62963 4.62963 4.62963 4.62963 4.62963 2.31481 2.31481 4.62963 4.62963 4.62963 4.62963 4.62963 4.62963 4.62963 4.62963 4.62963 4.62963 4.62963 2.31481 2.31481 4.62963 4.62963 4.62963 4.62963 4.62963 4.62963 4.62963 4.62963 4.62963 4.62963 4.62963 2.31481 2.31482 4.62963 4.62963 4.62963 4.62963 4.62963 4.62963 4.62963 4.62963 4.62963 4.62963 4.62963 2.31481 2.31481 4.62963 4.62963 4.62963 4.62963 4.62963 4.62963 4.62963 4.62963 4.62963 4.62963 4.62963 2.31481 0.771605 2.31481 2.31481 2.31481 2.31481 2.31481 2.31481 2.31481 2.31481 2.31481 2.31481 2.31481 1.54321 0.385802 0.771605 0.771605 0.771605 0.771605 0.771605 0.771605 0.771605 0.771605 0.771605 0.771605 0.771605 0.385802 0.771605 2.31481 2.31481 2.31481 2.31481 2.31481 2.31481 2.31481 2.31481 2.31481 2.31481 2.31481 1.54321 0.771605 2.31481 2.31481 2.31481 2.31481 2.31481 2.31481 2.31481 2.31481 2.31481 2.31481 2.31481 1.54321 0.771605 2.31481 2.31481 2.31481 2.31481 2.31481 2.31481 2.31481 2.31481 2.31481 2.31481 2.31481 1.54321 0.771605 2.31481 2.31481 2.31481 2.31481 2.31481 2.31481 2.31481 2.31481 2.31481 2.31481 2.31481 1.54321 0.771605 2.31481 2.31481 2.31481 2.31481 2.31481 2.31481 2.31481 2.31481 2.31481 2.31481 2.31481 1.54321 0.385802 1.54321 1.54321 1.54321 1.54321 1.54321 1.54321 1.54321 1.54321 1.54321 1.54321 1.54321 1.15741 
VECTORS u float
-0.999 0 0  -0.853872 0.173809 0.165454  -0.656926 0.227057 0.218759  -0.436152 0.238109 0.234783  -0.19082 0.230965 0.230305  0.0792171 0.22343 0.222656  0.400368 0.219149 0.216676  0.709358 0.192251 0.188751  0.864204 0.132159 0.127676  0.9338 0.0751813 0.0704632  0.966789 0.0391805 0.0363885  0.984145 0.0170786 0.01829  0.999 0 0  -0.999 1.49012e-08 0  -0.897331 0.12479 0.193092  -0.700137 0.173582 0.221798  -0.477694 0.183345 0.225138  -0.236794 0.174257 0.217102  0.0192813 0.163903 0.205772  0.301199 0.153327 0.192389  0.631279 0.13721 0.186911  0.8429 0.10319 0.156075  0.931134 0.0580429 0.0983564  0.970652 0.0289803 0.0521515  0.988785 0.0113098 0.0233835  0.999 1.49012e-08 0  -0.999 0 0  -0.907669 0.088445 0.160171  -0.729702 0.126775 0.212458  -0.513587 0.13205 0.214013  -0.280972 0.118949 0.206216  -0.0372817 0.104613 0.193862  0.220831 0.088726 0.177695  0.505778 0.0644037 0.166234  0.800638 0.0645125 0.169265  0.925096 0.040617 0.122627  0.970171 0.0188276 0.0683946  0.989041 0.0055941 0.0310421  0.999 0 0  -0.999 0 0  -0.904707 0.0603365 0.123312  -0.748783 0.0870273 0.192386  -0.547608 0.0834637 0.208882  -0.323889 0.0652834 0.202456  -0.0895733 0.0466981 0.18836  0.155119 0.0267064 0.169046  0.414171 -0.00349686 0.151968  0.677533 -0.0142236 0.142516  0.913007 0.0200731 0.134224  0.971031 0.00944144 0.0736238  0.989676 -4.14252e-06 0.0292258  0.999 0 0  -0.999 0 0  -0.907378 0.0338413 0.0963046  -0.766012 0.0512286 0.175394  -0.580531 0.0381309 0.208106  -0.36543 0.013912 0.203971  -0.13774 -0.00913095 0.188654  0.0994009 -0.0326849 0.164132  0.345138 -0.0669361 0.141399  0.588819 -0.0854001 0.122421  0.812107 -0.0588112 0.102234  0.970749 0.00122672 0.0747441  0.990901 -0.00435871 0.0215157  0.999 0 0  -0.999 0 0  -0.93094 0.000916958 0.0723979  -0.798786 0.0121891 0.163801  -0.617698 -0.00618356 0.212025  -0.409376 -0.0360604 0.211827  -0.186562 -0.0632229 0.191712  0.048027 -0.0890904 0.159962  0.285169 -0.126237 0.13267  0.516995 -0.149442 0.106837  0.733745 -0.126188 0.0802152  0.894883 -0.0646019 0.0529403  0.99029 -0.00756812 0.0222412  0.999 0 0  -0.999 0 0  -0.954093 -0.0259101 0.0552692  -0.84568 -0.0348785 0.1376  -0.662275 -0.055373 0.212163  -0.449913 -0.0872628 0.221897  -0.22634 -0.117018 0.189602  0.00793457 -0.144085 0.149147  0.241756 -0.182031 0.123921  0.464942 -0.207188 0.0975693  0.673452 -0.186197 0.0740553  0.842071 -0.119741 0.065193  0.92999 -0.0675828 0.0535796  0.999 0 0  -0.999 0 1.49012e-08  -0.89808 0.198856 0.116316  -0.700035 0.228153 0.164948  -0.478137 0.229453 0.179454  -0.237689 0.219743 0.17289  0.0179177 0.207937 0.162206  0.299983 0.194916 0.149735  0.634514 0.189934 0.133747  0.842957 0.15805 0.0984274  0.93176 0.100997 0.0533042  0.97098 0.0546537 0.0256606  0.989039 0.0240495 0.0114952  0.999 0 1.49012e-08  -0.999 1.49012e-08 1.49012e-08  -0.926917 0.130425 0.123937  -0.714387 0.167162 0.160378  -0.493677 0.169809 0.165119  -0.26188 0.159956 0.156858  -0.0182799 0.147745 0.145  0.244643 0.133652 0.130545  0.544244 0.125864 0.122971  0.794443 0.115477 0.112905  0.917441 0.0780078 0.0752044  0.970356 0.0426536 0.0398139  0.992937 0.0189601 0.0177032  0.999 1.49012e-08 1.49012e-08  -0.999 0 1.49012e-08  -0.946037 0.0906205 0.0874701  -0.764603 0.113862 0.146076  -0.541602 0.115761 0.151426  -0.310014 0.104565 0.14559  -0.0710154 0.0906261 0.13486  0.180051 0.0738744 0.120418  0.447836 0.058826 0.109611  0.724163 0.0616441 0.112827  0.897918 0.0513003 0.0912138  0.965253 0.0287499 0.0526524  0.992055 0.0127839 0.0246978  0.999 0 1.49012e-08  -0.999 0 1.49012e-08  -0.958081 0.0617794 0.048174  -0.799828 0.0715994 0.122662  -0.588611 0.0658251 0.144394  -0.360989 0.0510623 0.141255  -0.126554 0.0341668 0.129928  0.116155 0.0143343 0.113477  0.366274 -0.0054417 0.0988387  0.618105 -0.0107477 0.0911881  0.862926 0.0138921 0.0908344  0.961215 0.0145685 0.0541948  0.991616 0.00639164 0.0219857  0.999 0 1.49012e-08  -0.999 0 1.49012e-08  -0.972862 0.035118 0.0204484  -0.827021 0.03585 0.103541  -0.631701 0.0199427 0.141763  -0.410105 -0.00020951 0.141829  -0.179696 -0.0209084 0.129821  0.0584389 -0.0438727 0.108639  0.299517 -0.0672414 0.0892335  0.535885 -0.0788115 0.0732415  0.762605 -0.063486 0.0594264  0.951374 -0.00357878 0.0488998  0.99182 0.00106716 0.0132756  0.999 0 1.49012e-08  -0.999 0 1.49012e-08  -0.985439 0.0155243 0.0108472  -0.860502 0.00140959 0.09474  -0.674312 -0.0230075 0.145575  -0.45775 -0.0492818 0.149682  -0.229313 -0.073984 0.13282  0.0077343 -0.0999007 0.10384  0.243715 -0.126632 0.0795272  0.471755 -0.142692 0.0569502  0.685647 -0.134458 0.0340298  0.865721 -0.0797669 0.0186912  0.990098 -0.004605 0.011689  0.999 0 1.49012e-08  -0.999 0 1.49012e-08  -0.98959 0.0057497 0.0128168  -0.9029 -0.035699 0.0769347  -0.722975 -0.0681515 0.148894  -0.501768 -0.0977755 0.162002  -0.269035 -0.125399 0.132426  -0.0319173 -0.154266 0.0932283  0.200242 -0.183567 0.0694883  0.421987 -0.202404 0.0459126  0.626851 -0.197528 0.0244711  0.801164 -0.145688 0.0206547  0.923114 -0.0700591 0.040449  0.999 0 1.49012e-08  -0.999 0 0  -0.908207 0.166625 0.0796367  -0.729621 0.219573 0.118273  -0.514067 0.219675 0.128128  -0.28202 0.210673 0.117506  -0.0385997 0.197569 0.102836  0.220109 0.180896 0.0850228  0.506371 0.169273 0.0600568  0.803266 0.171927 0.0611768  0.925747 0.123521 0.0356388  0.970702 0.0687882 0.0147656  0.989317 0.0302503 0.00462708  0.999 0 0  -0.999 1.49012e-08 0  -0.947124 0.0936086 0.0822056  -0.76405 0.152699 0.106246  -0.541112 0.156988 0.110544  -0.309678 0.150025 0.101086  -0.0708712 0.138604 0.0875589  0.179884 0.123526 0.070413  0.447605 0.11227 0.0554215  0.726708 0.115521 0.0594831  0.898028 0.0921359 0.0480056  0.965894 0.0536426 0.02573  0.9924 0.0247129 0.0111605  0.999 1.49012e-08 0  -0.999 0 0  -0.973569 0.0513171 0.0425997  -0.82909 0.0872846 0.0799604  -0.586855 0.0978195 0.0918359  -0.354723 0.091634 0.0868824  -0.119787 0.0800698 0.0760325  0.123949 0.0645912 0.0611435  0.377075 0.0514675 0.0485324  0.64622 0.0544764 0.052308  0.861651 0.0528731 0.0514493  0.955484 0.0338643 0.0325929  0.990675 0.0170353 0.0166251  0.999 0 0  -0.999 0 0  -0.980229 0.0322718 0.0130965  -0.875185 0.0390339 0.0513872  -0.649225 0.042683 0.0791785  -0.413805 0.0357719 0.0797633  -0.177336 0.0235979 0.0707146  0.0642503 0.00719804 0.0560232  0.309222 -0.00796461 0.0425974  0.557598 -0.0121516 0.0366265  0.806808 0.00216424 0.0399896  0.945129 0.01174 0.0273316  0.9892 0.00843167 0.0114298  0.999 0 0  -0.999 0 0  -0.985146 0.0162319 -0.00154597  -0.907152 -0.000183761 0.0281168  -0.702634 -0.00673771 0.0720244  -0.469464 -0.017011 0.0780551  -0.233549 -0.0314147 0.0698538  0.00710773 -0.0497523 0.0516458  0.246917 -0.0674362 0.0347945  0.483368 -0.0763633 0.0220816  0.715763 -0.0688263 0.0134243  0.921395 -0.0199835 0.0123205  0.988336 0.000337362 -3.61502e-05  0.999 0 0  -0.999 0 0  -0.99042 0.00365901 -0.00114805  -0.940916 -0.0368352 0.0160037  -0.75055 -0.0518048 0.0720768  -0.521818 -0.0672906 0.0836425  -0.28496 -0.0846969 0.0716278  -0.042532 -0.105458 0.0460766  0.194765 -0.126044 0.0248593  0.425597 -0.138563 0.00653359  0.645852 -0.136813 -0.010223  0.83794 -0.0948349 -0.017002  0.982249 -0.0116625 -0.00685048  0.999 0 0  -0.999 0 0  -0.990641 -0.00238526 0.00415027  -0.96655 -0.0635917 0.013077  -0.80315 -0.0948911 0.0761582  -0.573721 -0.11546 0.0951917  -0.327716 -0.135246 0.0711999  -0.0820538 -0.159212 0.0350247  0.15233 -0.183039 0.0139665  0.378531 -0.198559 -0.00537935  0.589712 -0.200578 -0.0214159  0.769165 -0.165606 -0.0213428  0.905256 -0.0899017 0.0113596  0.999 0 0  -0.999 0 0  -0.905122 0.128189 0.0510864  -0.749076 0.198894 0.0787708  -0.548249 0.215297 0.0795539  -0.325052 0.208218 0.0638096  -0.0909446 0.193433 0.0448723  0.154166 0.173144 0.0228937  0.413824 0.15526 -0.00825793  0.678201 0.145107 -0.0186399  0.915725 0.13537 0.0161596  0.972184 0.0729031 0.00481528  0.990262 0.0275933 -0.00198728  0.999 0 0  -0.999 1.49012e-08 0  -0.959857 0.0521521 0.0525827  -0.800089 0.128726 0.0635099  -0.588488 0.15068 0.060325  -0.361016 0.146964 0.0474001  -0.126797 0.135059 0.0310782  0.115823 0.117612 0.0109879  0.366094 0.102088 -0.00890577  0.618857 0.0937632 -0.0139641  0.865462 0.0920595 0.0117987  0.962225 0.0537393 0.0111769  0.992387 0.0213137 0.00465214  0.999 1.49012e-08 0  -0.999 0 0  -0.981474 0.01924 0.0209791  -0.876901 0.0571492 0.0302752  -0.648939 0.085467 0.0359826  -0.413546 0.0855407 0.0305892  -0.177268 0.0759198 0.0193245  0.0640923 0.0602112 0.00358677  0.308712 0.0457313 -0.0110767  0.557249 0.03878 -0.0145063  0.809554 0.041249 0.00152034  0.94535 0.0267436 0.00997341  0.989679 0.0111538 0.00787306  0.999 0 0  -0.999 0 0  -0.983519 0.00663298 -0.00287253  -0.923358 0.00617242 -0.00143531  -0.729665 0.0193173 0.0123912  -0.475872 0.0256125 0.0194681  -0.235134 0.0174539 0.0120162  0.00641429 0.00215304 -0.00219163  0.247393 -0.0125614 -0.0157687  0.488899 -0.0208057 -0.0227774  0.747196 -0.0151722 -0.015331  0.926337 -0.00530612 -0.00491801  0.987204 -0.00110403 -0.000967085  0.999 0 0  -0.999 0 0  -0.986152 -0.00493479 -0.0129173  -0.941285 -0.0251346 -0.0147681  -0.794324 -0.0365441 -0.00134909  -0.543306 -0.0321414 0.0124707  -0.296508 -0.0399288 0.00858432  -0.0502016 -0.0551278 -0.00709531  0.191343 -0.0701993 -0.0219415  0.428799 -0.0799463 -0.0324481  0.66903 -0.0813506 -0.0364815  0.889853 -0.0490133 -0.0301369  0.985472 -0.0136887 -0.0170871  0.999 0 0  -0.999 0 0  -0.98953 -0.0144936 -0.0096685  -0.958434 -0.0514619 -0.0115978  -0.847568 -0.0850646 -0.00648573  -0.604838 -0.0859553 0.0137731  -0.351864 -0.0947995 0.0081588  -0.0992347 -0.111068 -0.0137374  0.143501 -0.12785 -0.0317143  0.378706 -0.139858 -0.0463848  0.608728 -0.145739 -0.0569843  0.816836 -0.118937 -0.0546193  0.971581 -0.0351442 -0.0333839  0.999 0 0  -0.999 0 0  -0.988098 -0.0199551 -0.00446323  -0.968902 -0.0695289 -0.00301528  -0.901383 -0.129589 -0.00567621  -0.66355 -0.136351 0.0220324  -0.396735 -0.146644 0.00571704  -0.136456 -0.165301 -0.0263398  0.106049 -0.184901 -0.0435348  0.338928 -0.199578 -0.0585474  0.561277 -0.208637 -0.0682376  0.756427 -0.18847 -0.0603304  0.904043 -0.115263 -0.0183249  0.999 0 0  -0.999 0 0  -0.907051 0.099477 0.0249228  -0.766907 0.180893 0.0434645  -0.582042 0.214951 0.0343224  -0.367208 0.211447 0.0124773  -0.139666 0.195314 -0.0109296  0.0978197 0.16939 -0.0364856  0.34384 0.145137 -0.0719004  0.588258 0.124943 -0.0904564  0.813689 0.103386 -0.0638881  0.973847 0.0725535 -0.00241464  0.99194 0.0183192 -0.00687492  0.999 0 0  -0.999 1.49012e-08 0  -0.975175 0.0218675 0.025652  -0.829267 0.108172 0.0273025  -0.633121 0.14824 0.0139378  -0.411294 0.149019 -0.00425792  -0.180792 0.136438 -0.024129  0.0574896 0.11395 -0.0471785  0.298701 0.093052 -0.0708259  0.535579 0.0757821 -0.0825935  0.763307 0.060391 -0.066923  0.953989 0.0465878 -0.00590819  0.992844 0.0107121 -0.000728488  0.999 1.49012e-08 0  -0.999 0 0  -0.98642 0.00241444 0.0038498  -0.910755 0.0320698 -0.0102637  -0.703927 0.0784458 -0.0143448  -0.470224 0.0852908 -0.0227728  -0.234211 0.0766101 -0.035957  0.00638831 0.0571258 -0.0533833  0.246099 0.0387057 -0.0704695  0.48285 0.0245142 -0.078801  0.716551 0.0142581 -0.0706468  0.924246 0.00986937 -0.0203357  0.988906 -0.00246015 -0.000254631  0.999 0 0  -0.999 0 0  -0.986604 -0.00595558 -0.016672  -0.943397 -0.008937 -0.0350894  -0.796266 0.00495785 -0.0450083  -0.54363 0.0199299 -0.0389232  -0.296804 0.0155982 -0.0456188  -0.0506753 -0.00143528 -0.0594598  0.190586 -0.0180045 -0.0732733  0.427689 -0.0303681 -0.081726  0.668205 -0.036489 -0.0813717  0.893353 -0.0328568 -0.046862  0.985391 -0.0196182 -0.0134935  0.999 0 0  -0.999 0 0  -0.988094 -0.0150151 -0.0244206  -0.953162 -0.0316452 -0.0403187  -0.860303 -0.0520085 -0.0599561  -0.630945 -0.0473003 -0.055279  -0.363176 -0.0450444 -0.0522959  -0.108046 -0.0601932 -0.0658485  0.136159 -0.0758718 -0.0796572  0.372452 -0.0879213 -0.0896997  0.60792 -0.094929 -0.0942057  0.85383 -0.0824932 -0.0775102  0.981792 -0.0394348 -0.0368232  0.999 0 0  -0.999 0 0  -0.990355 -0.0222597 -0.0190232  -0.963549 -0.0505508 -0.0291427  -0.895267 -0.0907171 -0.0537359  -0.710486 -0.108423 -0.0610677  -0.431449 -0.105065 -0.0579185  -0.161233 -0.118787 -0.0754599  0.0902386 -0.134065 -0.0902929  0.330653 -0.14594 -0.102043  0.564881 -0.153996 -0.10948  0.79365 -0.149801 -0.0977141  0.96084 -0.0708721 -0.0660198  0.999 0 0  -0.999 0 0  -0.987813 -0.0270959 -0.0136916  -0.96877 -0.064537 -0.0165854  -0.923416 -0.12077 -0.0366467  -0.783298 -0.163139 -0.0576122  -0.487776 -0.160711 -0.0641483  -0.200188 -0.174554 -0.0905507  0.0562433 -0.19154 -0.10338  0.299003 -0.205153 -0.114157  0.53053 -0.215644 -0.118977  0.745716 -0.216582 -0.102385  0.908171 -0.147107 -0.0502471  0.999 0 0  -0.999 0 0  -0.930019 0.0753864 -0.00687969  -0.800684 0.168243 0.00472748  -0.620922 0.219271 -0.0100846  -0.412271 0.220999 -0.0376231  -0.188939 0.20102 -0.0648906  0.0457631 0.167565 -0.0927737  0.283072 0.137597 -0.131287  0.51535 0.109557 -0.155065  0.733494 0.0813233 -0.132526  0.901664 0.0524723 -0.0659997  0.992257 0.0185977 -0.00917763  0.999 0 0  -0.999 1.49012e-08 0  -0.987384 0.0119155 0.00645292  -0.863931 0.0984057 -0.00716108  -0.677775 0.152272 -0.0296899  -0.460674 0.158322 -0.0539091  -0.231483 0.141831 -0.0774154  0.00606465 0.111275 -0.103275  0.242486 0.0845582 -0.130319  0.471075 0.0597527 -0.146897  0.685829 0.0351252 -0.1386  0.868085 0.016046 -0.0830701  0.992271 0.00830063 -0.00505322  0.999 1.49012e-08 0  -0.999 0 0  -0.991295 0.00258827 -0.00920272  -0.945468 0.0185698 -0.0479692  -0.754257 0.0782936 -0.0607703  -0.524266 0.092055 -0.0741233  -0.286674 0.0805857 -0.0898254  -0.0437667 0.0536019 -0.109317  0.193968 0.0300779 -0.129183  0.425261 0.0093835 -0.141291  0.646302 -0.00932166 -0.139348  0.83995 -0.0200339 -0.0962765  0.984895 -0.0107879 -0.0108928  0.999 0 0  -0.999 0 0  -0.990172 -0.00371459 -0.027756  -0.960966 -0.00611404 -0.0629443  -0.851948 -0.000815153 -0.0956687  -0.606867 0.0223523 -0.0941204  -0.353142 0.0174608 -0.101207  -0.100245 -0.00587422 -0.115683  0.142702 -0.0262948 -0.130932  0.378118 -0.0436105 -0.141507  0.608595 -0.0565499 -0.145855  0.818911 -0.0581714 -0.117736  0.975172 -0.0376838 -0.0326504  0.999 0 0  -0.999 0 0  -0.990615 -0.0107184 -0.0335275  -0.964462 -0.0208141 -0.0612301  -0.89764 -0.0459583 -0.101002  -0.712471 -0.0524021 -0.117912  -0.431874 -0.0480981 -0.112706  -0.16189 -0.0671751 -0.124371  0.0895171 -0.0847327 -0.137528  0.329777 -0.0994735 -0.147258  0.563649 -0.109713 -0.152799  0.793007 -0.103071 -0.144286  0.965253 -0.070419 -0.0655258  0.999 0 0  -0.999 0 0  -0.991859 -0.0166825 -0.0269904  -0.97001 -0.0346357 -0.0451562  -0.916971 -0.0723724 -0.0827649  -0.793291 -0.112421 -0.