# vtk DataFile Version 5.1
vtk output
ASCII

DATASET UNSTRUCTURED_GRID
POINTS 425 float
0 0 0
0.5 0 0
1 0 0
1.5 0 0
2 0 0
2.5 0 0
3 0 0
3.5 0 0
4 0 0
0 0.5 0
0.5 0.5 0
1 0.5 0
1.5 0.5 0
2 0.5 0
2.5 0.5 0
3 0.5 0
3.5 0.5 0
4 0.5 0
0 1 0
0.5 1 0
1 1 0
1.5 1 0
2 1 0
2.5 1 0
3 1 0
3.5 1 0
4 1 0
0 0 0.5
0.5 0 0.5
1 0 0.5
1.5 0 0.5
2 0 0.5
2.5 0 0.5
3 0 0.5
3.5 0 0.5
4 0 0.5
0 0.5 0.5
0.5 0.5 0.5
1 0.5 0.5
1.5 0.5 0.5
2 0.5 0.5
2.5 0.5 0.5
3 0.5 0.5
3.5 0.5 0.5
4 0.5 0.5
0 1 0.5
0.5 1 0.5
1 1 0.5
1.5 1 0.5
2 1 0.5
2.5 1 0.5
3 1 0.5
3.5 1 0.5
4 1 0.5
0 0 1
0.5 0 1
1 0 1
1.5 0 1
2 0 1
2.5 0 1
3 0 1
3.5 0 1
4 0 1
0 0.5 1
0.5 0.5 1
1 0.5 1
1.5 0.5 1
2 0.5 1
2.5 0.5 1
3 0.5 1
3.5 0.5 1
4 0.5 1
0 1 1
0.5 1 1
1 1 1
1.5 1 1
2 1 1
2.5 1 1
3 1 1
3.5 1 1
4 1 1
0 0 0.25
0.25 0 0.25
0.25 0 0
0 0.25 0
0 0.25 0.25
0.25 0.25 0
0.5 0.25 0
0.25 0.5 0
0.25 0.25 0.25
0 0.25 0.5
0.25 0.5 0.25
0 0.5 0.25
0.5 0 0.25
0.5 0.25 0.25
0.25 0 0.5
0.25 0.25 0.5
0.5 0.5 0.25
0.25 0.5 0.5
0.5 0.25 0.5
0.75 0 0.25
0.75 0 0
0.75 0.25 0
1 0.25 0
0.75 0.5 0
0.75 0.25 0.25
0.75 0.5 0.25
1 0 0.25
1 0.25 0.25
0.75 0 0.5
0.75 0.25 0.5
1 0.5 0.25
0.75 0.5 0.5
1 0.25 0.5
1.25 0 0.25
1.25 0 0
1.25 0.25 0
1.5 0.25 0
1.25 0.5 0
1.25 0.25 0.25
1.25 0.5 0.25
1.5 0 0.25
1.5 0.25 0.25
1.25 0 0.5
1.25 0.25 0.5
1.5 0.5 0.25
1.25 0.5 0.5
1.5 0.25 0.5
1.75 0 0.25
1.75 0 0
1.75 0.25 0
2 0.25 0
1.75 0.5 0
1.75 0.25 0.25
1.75 0.5 0.25
2 0 0.25
2 0.25 0.25
1.75 0 0.5
1.75 0.25 0.5
2 0.5 0.25
1.75 0.5 0.5
2 0.25 0.5
2.25 0 0.25
2.25 0 0
2.25 0.25 0
2.5 0.25 0
2.25 0.5 0
2.25 0.25 0.25
2.25 0.5 0.25
2.5 0 0.25
2.5 0.25 0.25
2.25 0 0.5
2.25 0.25 0.5
2.5 0.5 0.25
2.25 0.5 0.5
2.5 0.25 0.5
2.75 0 0.25
2.75 0 0
2.75 0.25 0
3 0.25 0
2.75 0.5 0
2.75 0.25 0.25
2.75 0.5 0.25
3 0 0.25
3 0.25 0.25
2.75 0 0.5
2.75 0.25 0.5
3 0.5 0.25
2.75 0.5 0.5
3 0.25 0.5
3.25 0 0.25
3.25 0 0
3.25 0.25 0
3.5 0.25 0
3.25 0.5 0
3.25 0.25 0.25
3.25 0.5 0.25
3.5 0 0.25
3.5 0.25 0.25
3.25 0 0.5
3.25 0.25 0.5
3.5 0.5 0.25
3.25 0.5 0.5
3.5 0.25 0.5
3.75 0 0.25
3.75 0 0
3.75 0.25 0
4 0.25 0
3.75 0.5 0
3.75 0.25 0.25
3.75 0.5 0.25
4 0 0.25
4 0.25 0.25
3.75 0 0.5
3.75 0.25 0.5
4 0.5 0.25
3.75 0.5 0.5
4 0.25 0.5
0 0.75 0
0 0.75 0.25
0.25 0.75 0
0.5 0.75 0
0.25 1 0
0.25 0.75 0.25
0 0.75 0.5
0.25 1 0.25
0 1 0.25
0.5 0.75 0.25
0.25 0.75 0.5
0.5 1 0.25
0.25 1 0.5
0.5 0.75 0.5
0.75 0.75 0
1 0.75 0
0.75 1 0
0.75 0.75 0.25
0.75 1 0.25
1 0.75 0.25
0.75 0.75 0.5
1 1 0.25
0.75 1 0.5
1 0.75 0.5
1.25 0.75 0
1.5 0.75 0
1.25 1 0
1.25 0.75 0.25
1.25 1 0.25
1.5 0.75 0.25
1.25 0.75 0.5
1.5 1 0.25
1.25 1 0.5
1.5 0.75 0.5
1.75 0.75 0
2 0.75 0
1.75 1 0
1.75 0.75 0.25
1.75 1 0.25
2 0.75 0.25
1.75 0.75 0.5
2 1 0.25
1.75 1 0.5
2 0.75 0.5
2.25 0.75 0
2.5 0.75 0
2.25 1 0
2.25 0.75 0.25
2.25 1 0.25
2.5 0.75 0.25
2.25 0.75 0.5
2.5 1 0.25
2.25 1 0.5
2.5 0.75 0.5
2.75 0.75 0
3 0.75 0
2.75 1 0
2.75 0.75 0.25
2.75 1 0.25
3 0.75 0.25
2.75 0.75 0.5
3 1 0.25
2.75 1 0.5
3 0.75 0.5
3.25 0.75 0
3.5 0.75 0
3.25 1 0
3.25 0.75 0.25
3.25 1 0.25
3.5 0.75 0.25
3.25 0.75 0.5
3.5 1 0.25
3.25 1 0.5
3.5 0.75 0.5
3.75 0.75 0
4 0.75 0
3.75 1 0
3.75 0.75 0.25
3.75 1 0.25
4 0.75 0.25
3.75 0.75 0.5
4 1 0.25
3.75 1 0.5
4 0.75 0.5
0 0 0.75
0.25 0 0.75
0 0.25 0.75
0.25 0.25 0.75
0 0.25 1
0.25 0.5 0.75
0 0.5 0.75
0.5 0 0.75
0.5 0.25 0.75
0.25 0 1
0.25 0.25 1
0.5 0.5 0.75
0.25 0.5 1
0.5 0.25 1
0.75 0 0.75
0.75 0.25 0.75
0.75 0.5 0.75
1 0 0.75
1 0.25 0.75
0.75 0 1
0.75 0.25 1
1 0.5 0.75
0.75 0.5 1
1 0.25 1
1.25 0 0.75
1.25 0.25 0.75
1.25 0.5 0.75
1.5 0 0.75
1.5 0.25 0.75
1.25 0 1
1.25 0.25 1
1.5 0.5 0.75
1.25 0.5 1
1.5 0.25 1
1.75 0 0.75
1.75 0.25 0.75
1.75 0.5 0.75
2 0 0.75
2 0.25 0.75
1.75 0 1
1.75 0.25 1
2 0.5 0.75
1.75 0.5 1
2 0.25 1
2.25 0 0.75
2.25 0.25 0.75
2.25 0.5 0.75
2.5 0 0.75
2.5 0.25 0.75
2.25 0 1
2.25 0.25 1
2.5 0.5 0.75
2.25 0.5 1
2.5 0.25 1
2.75 0 0.75
2.75 0.25 0.75
2.75 0.5 0.75
3 0 0.75
3 0.25 0.75
2.75 0 1
2.75 0.25 1
3 0.5 0.75
2.75 0.5 1
3 0.25 1
3.25 0 0.75
3.25 0.25 0.75
3.25 0.5 0.75
3.5 0 0.75
3.5 0.25 0.75
3.25 0 1
3.25 0.25 1
3.5 0.5 0.75
3.25 0.5 1
3.5 0.25 1
3.75 0 0.75
3.75 0.25 0.75
3.75 0.5 0.75
4 0 0.75
4 0.25 0.75
3.75 0 1
3.75 0.25 1
4 0.5 0.75
3.75 0.5 1
4 0.25 1
0 0.75 0.75
0.25 0.75 0.75
0 0.75 1
0.25 1 0.75
0 1 0.75
0.5 0.75 0.75
0.25 0.75 1
0.5 1 0.75
0.25 1 1
0.5 0.75 1
0.75 0.75 0.75
0.75 1 0.75
1 0.75 0.75
0.75 0.75 1
1 1 0.75
0.75 1 1
1 0.75 1
1.25 0.75 0.75
1.25 1 0.75
1.5 0.75 0.75
1.25 0.75 1
1.5 1 0.75
1.25 1 1
1.5 0.75 1
1.75 0.75 0.75
1.75 1 0.75
2 0.75 0.75
1.75 0.75 1
2 1 0.75
1.75 1 1
2 0.75 1
2.25 0.75 0.75
2.25 1 0.75
2.5 0.75 0.75
2.25 0.75 1
2.5 1 0.75
2.25 1 1
2.5 0.75 1
2.75 0.75 0.75
2.75 1 0.75
3 0.75 0.75
2.75 0.75 1
3 1 0.75
2.75 1 1
3 0.75 1
3.25 0.75 0.75
3.25 1 0.75
3.5 0.75 0.75
3.25 0.75 1
3.5 1 0.75
3.25 1 1
3.5 0.75 1
3.75 0.75 0.75
3.75 1 0.75
4 0.75 0.75
3.75 0.75 1
4 1 0.75
3.75 1 1
4 0.75 1

CELLS 193 1920
OFFSETS vtktypeint64
0 10 20 30 40 50 60 70 80 90 100 110 120 130 140 150 160 170 180 190 200 210 220 230 240 250 260 270 280 290 300 310 320 330 340 350 360 370 380 390 400 410 420 430 440 450 460 470 480 490 500 510 520 530 540 550 560 570 580 590 600 610 620 630 640 650 660 670 680 690 700 710 720 730 740 750 760 770 780 790 800 810 820 830 840 850 860 870 880 890 900 910 920 930 940 950 960 970 980 990 1000 1010 1020 1030 1040 1050 1060 1070 1080 1090 1100 1110 1120 1130 1140 1150 1160 1170 1180 1190 1200 1210 1220 1230 1240 1250 1260 1270 1280 1290 1300 1310 1320 1330 1340 1350 1360 1370 1380 1390 1400 1410 1420 1430 1440 1450 1460 1470 1480 1490 1500 1510 1520 1530 1540 1550 1560 1570 1580 1590 1600 1610 1620 1630 1640 1650 1660 1670 1680 1690 1700 1710 1720 1730 1740 1750 1760 1770 1780 1790 1800 1810 1820 1830 1840 1850 1860 1870 1880 1890 1900 1910 1920 
CONNECTIVITY vtktypeint64
0 27 1 9 81 82 83 84 85 86 
9 1 10 27 86 87 88 85 82 89 
27 36 10 9 90 91 89 85 92 88 
1 28 10 27 93 94 87 82 95 89 
10 28 36 27 94 96 91 89 95 90 
10 36 28 37 91 96 94 97 98 99 
1 28 2 10 93 100 101 87 94 102 
10 2 11 28 102 103 104 94 100 105 
28 37 11 10 99 106 105 94 97 104 
2 29 11 28 107 108 103 100 109 105 
11 29 37 28 108 110 106 105 109 99 
11 37 29 38 106 110 108 111 112 113 
2 29 3 11 107 114 115 103 108 116 
11 3 12 29 116 117 118 108 114 119 
29 38 12 11 113 120 119 108 111 118 
3 30 12 29 121 122 117 114 123 119 
12 30 38 29 122 124 120 119 123 113 
12 38 30 39 120 124 122 125 126 127 
3 30 4 12 121 128 129 117 122 130 
12 4 13 30 130 131 132 122 128 133 
30 39 13 12 127 134 133 122 125 132 
4 31 13 30 135 136 131 128 137 133 
13 31 39 30 136 138 134 133 137 127 
13 39 31 40 134 138 136 139 140 141 
4 31 5 13 135 142 143 131 136 144 
13 5 14 31 144 145 146 136 142 147 
31 40 14 13 141 148 147 136 139 146 
5 32 14 31 149 150 145 142 151 147 
14 32 40 31 150 152 148 147 151 141 
14 40 32 41 148 152 150 153 154 155 
5 32 6 14 149 156 157 145 150 158 
14 6 15 32 158 159 160 150 156 161 
32 41 15 14 155 162 161 150 153 160 
6 33 15 32 163 164 159 156 165 161 
15 33 41 32 164 166 162 161 165 155 
15 41 33 42 162 166 164 167 168 169 
6 33 7 15 163 170 171 159 164 172 
15 7 16 33 172 173 174 164 170 175 
33 42 16 15 169 176 175 164 167 174 
7 34 16 33 177 178 173 170 179 175 
16 34 42 33 178 180 176 175 179 169 
16 42 34 43 176 180 178 181 182 183 
7 34 8 16 177 184 185 173 178 186 
16 8 17 34 186 187 188 178 184 189 
34 43 17 16 183 190 189 178 181 188 
8 35 17 34 191 192 187 184 193 189 
17 35 43 34 192 194 190 189 193 183 
17 43 35 44 190 194 192 195 196 197 
9 36 10 18 92 91 88 198 199 200 
18 10 19 36 200 201 202 199 91 203 
36 45 19 18 204 205 203 199 206 202 
10 37 19 36 97 207 201 91 98 203 
19 37 45 36 207 208 205 203 98 204 
19 45 37 46 205 208 207 209 210 211 
10 37 11 19 97 106 104 201 207 212 
19 11 20 37 212 213 214 207 106 215 
37 46 20 19 211 216 215 207 209 214 
11 38 20 37 111 217 213 106 112 215 
20 38 46 37 217 218 216 215 112 211 
20 46 38 47 216 218 217 219 220 221 
11 38 12 20 111 120 118 213 217 222 
20 12 21 38 222 223 224 217 120 225 
38 47 21 20 221 226 225 217 219 224 
12 39 21 38 125 227 223 120 126 225 
21 39 47 38 227 228 226 225 126 221 
21 47 39 48 226 228 227 229 230 231 
12 39 13 21 125 134 132 223 227 232 
21 13 22 39 232 233 234 227 134 235 
39 48 22 21 231 236 235 227 229 234 
13 40 22 39 139 237 233 134 140 235 
22 40 48 39 237 238 236 235 140 231 
22 48 40 49 236 238 237 239 240 241 
13 40 14 22 139 148 146 233 237 242 
22 14 23 40 242 243 244 237 148 245 
40 49 23 22 241 246 245 237 239 244 
14 41 23 40 153 247 243 148 154 245 
23 41 49 40 247 248 246 245 154 241 
23 49 41 50 246 248 247 249 250 251 
14 41 15 23 153 162 160 243 247 252 
23 15 24 41 252 253 254 247 162 255 
41 50 24 23 251 256 255 247 249 254 
15 42 24 41 167 257 253 162 168 255 
24 42 50 41 257 258 256 255 168 251 
24 50 42 51 256 258 257 259 260 261 
15 42 16 24 167 176 174 253 257 262 
24 16 25 42 262 263 264 257 176 265 
42 51 25 24 261 266 265 257 259 264 
16 43 25 42 181 267 263 176 182 265 
25 43 51 42 267 268 266 265 182 261 
25 51 43 52 266 268 267 269 270 271 
16 43 17 25 181 190 188 263 267 272 
25 17 26 43 272 273 274 267 190 275 
43 52 26 25 271 276 275 267 269 274 
17 44 26 43 195 277 273 190 196 275 
26 44 52 43 277 278 276 275 196 271 
26 52 44 53 276 278 277 279 280 281 
27 54 28 36 282 283 95 90 284 96 
36 28 37 54 96 99 98 284 283 285 
54 63 37 36 286 287 285 284 288 98 
28 55 37 54 289 290 99 283 291 285 
37 55 63 54 290 292 287 285 291 286 
37 63 55 64 287 292 290 293 294 295 
28 55 29 37 289 296 109 99 290 110 
37 29 38 55 110 113 112 290 296 297 
55 64 38 37 295 298 297 290 293 112 
29 56 38 55 299 300 113 296 301 297 
38 56 64 55 300 302 298 297 301 295 
38 64 56 65 298 302 300 303 304 305 
29 56 30 38 299 306 123 113 300 124 
38 30 39 56 124 127 126 300 306 307 
56 65 39 38 305 308 307 300 303 126 
30 57 39 56 309 310 127 306 311 307 
39 57 65 56 310 312 308 307 311 305 
39 65 57 66 308 312 310 313 314 315 
30 57 31 39 309 316 137 127 310 138 
39 31 40 57 138 141 140 310 316 317 
57 66 40 39 315 318 317 310 313 140 
31 58 40 57 319 320 141 316 321 317 
40 58 66 57 320 322 318 317 321 315 
40 66 58 67 318 322 320 323 324 325 
31 58 32 40 319 326 151 141 320 152 
40 32 41 58 152 155 154 320 326 327 
58 67 41 40 325 328 327 320 323 154 
32 59 41 58 329 330 155 326 331 327 
41 59 67 58 330 332 328 327 331 325 
41 67 59 68 328 332 330 333 334 335 
32 59 33 41 329 336 165 155 330 166 
41 33 42 59 166 169 168 330 336 337 
59 68 42 41 335 338 337 330 333 168 
33 60 42 59 339 340 169 336 341 337 
42 60 68 59 340 342 338 337 341 335 
42 68 60 69 338 342 340 343 344 345 
33 60 34 42 339 346 179 169 340 180 
42 34 43 60 180 183 182 340 346 347 
60 69 43 42 345 348 347 340 343 182 
34 61 43 60 349 350 183 346 351 347 
43 61 69 60 350 352 348 347 351 345 
43 69 61 70 348 352 350 353 354 355 
34 61 35 43 349 356 193 183 350 194 
43 35 44 61 194 197 196 350 356 357 
61 70 44 43 355 358 357 350 353 196 
35 62 44 61 359 360 197 356 361 357 
44 62 70 61 360 362 358 357 361 355 
44 70 62 71 358 362 360 363 364 365 
36 63 37 45 288 287 98 204 366 208 
45 37 46 63 208 211 210 366 287 367 
63 72 46 45 368 369 367 366 370 210 
37 64 46 63 293 371 211 287 294 367 
46 64 72 63 371 372 369 367 294 368 
46 72 64 73 369 372 371 373 374 375 
37 64 38 46 293 298 112 211 371 218 
46 38 47 64 218 221 220 371 298 376 
64 73 47 46 375 377 376 371 373 220 
38 65 47 64 303 378 221 298 304 376 
47 65 73 64 378 379 377 376 304 375 
47 73 65 74 377 379 378 380 381 382 
38 65 39 47 303 308 126 221 378 228 
47 39 48 65 228 231 230 378 308 383 
65 74 48 47 382 384 383 378 380 230 
39 66 48 65 313 385 231 308 314 383 
48 66 74 65 385 386 384 383 314 382 
48 74 66 75 384 386 385 387 388 389 
39 66 40 48 313 318 140 231 385 238 
48 40 49 66 238 241 240 385 318 390 
66 75 49 48 389 391 390 385 387 240 
40 67 49 66 323 392 241 318 324 390 
49 67 75 66 392 393 391 390 324 389 
49 75 67 76 391 393 392 394 395 396 
40 67 41 49 323 328 154 241 392 248 
49 41 50 67 248 251 250 392 328 397 
67 76 50 49 396 398 397 392 394 250 
41 68 50 67 333 399 251 328 334 397 
50 68 76 67 399 400 398 397 334 396 
50 76 68 77 398 400 399 401 402 403 
41 68 42 50 333 338 168 251 399 258 
50 42 51 68 258 261 260 399 338 404 
68 77 51 50 403 405 404 399 401 260 
42 69 51 68 343 406 261 338 344 404 
51 69 77 68 406 407 405 404 344 403 
51 77 69 78 405 407 406 408 409 410 
42 69 43 51 343 348 182 261 406 268 
51 43 52 69 268 271 270 406 348 411 
69 78 52 51 410 412 411 406 408 270 
43 70 52 69 353 413 271 348 354 411 
52 70 78 69 413 414 412 411 354 410 
52 78 70 79 412 414 413 415 416 417 
43 70 44 52 353 358 196 271 413 278 
52 44 53 70 278 281 280 413 358 418 
70 79 53 52 417 419 418 413 415 280 
44 71 53 70 363 420 281 358 364 418 
53 71 79 70 420 421 419 418 364 417 
53 79 71 80 419 421 420 422 423 424 
CELL_TYPES 192
24 24 24 24 24 24 24 24 24 24 24 24 24 24 24 24 24 24 24 24 24 24 24 24 24 24 24 24 24 24 24 24 24 24 24 24 24 24 24 24 24 24 24 24 24 24 24 24 24 24 24 24 24 24 24 24 24 24 24 24 24 24 24 24 24 24 24 24 24 24 24 24 24 24 24 24 24 24 24 24 24 24 24 24 24 24 24 24 24 24 24 24 24 24 24 24 24 24 24 24 24 24 24 24 24 24 24 24 24 24 24 24 24 24 24 24 24 24 24 24 24 24 24 24 24 24 24 24 24 24 24 24 24 24 24 24 24 24 24 24 24 24 24 24 24 24 24 24 24 24 24 24 24 24 24 24 24 24 24 24 24 24 24 24 24 24 24 24 24 24 24 24 24 24 24 24 24 24 24 24 24 24 24 24 24 24 24 24 24 24 24 24 

POINT_DATA 425
SCALARS weights float 1
LOOKUP_TABLE default
12.5 50 50 50 50 50 50 50 37.5 50 150 150 150 150 150 150 150 100 37.5 100 100 100 100 100 100 100 62.5 75 150 150 150 150 150 150 150 75 150 300 300 300 300 300 300 300 150 75 150 150 150 150 150 150 150 75 62.5 100 100 100 100 99.9999 99.9999 99.9999 37.5 100 150 150 150 150 150 150 150 50 37.5 50 50 50 50 50 50 50 12.5 12.5 37.5 12.5 12.5 37.5 25 37.5 37.5 50 37.5 75 25 25 75 37.5 50 50 75 75 37.5 12.5 25 37.5 37.5 50 75 25 75 37.5 50 50 75 75 37.5 12.5 25 37.5 37.5 50 75 25 75 37.5 50 50 75 75 37.5 12.5 25 37.5 37.5 50 75 25 75 37.5 50 50 75 75 37.5 12.5 25 37.5 37.5 50 75 25 75 37.5 50 50 75 75 37.5 12.5 25 37.5 37.5 50 75 25 75 37.5 50 50 75 75 37.5 12.5 25 37.5 37.5 50 75 25 75 37.5 50 50 75 75 37.5 12.5 25 25 37.5 50 75 12.5 37.5 37.5 50 25 75 37.5 12.5 37.5 25 37.5 25 50 37.5 37.5 12.5 75 50 25 37.5 75 25 37.5 25 50 37.5 75 50 25 37.5 75 25 37.5 25 50 37.5 75 50 25 37.5 75 25 37.5 25 50 37.5 75 50 25 37.5 75 25 37.5 25 50 37.5 75 50 25 37.5 75 25 37.5 25 50 37.5 75 50 25 37.5 75 25 37.5 25 50 37.5 75 50 25 37.5 75 25 25 25 49.9999 37.5 37.5 50 12.5 37.5 37.5 12.5 37.5 37.5 50 25 75 25 25 75 25 25 50 37.5 37.5 37.5 50 75 25 75 25 25 50 37.5 37.5 37.5 50 75 25 75 25 25 50 37.5 37.5 37.5 50 75 25 75 25 25 50 37.5 37.5 37.5 50 75 25 75 25 25 50 37.5 37.5 37.5 50 75 25 75 25 25 50 37.5 37.5 37.5 49.9999 75 25 75 25 25 50 37.5 37.5 37.5 49.9999 75 12.5 37.5 25 25 25 37.5 12.5 37.5 50 25 37.5 12.5 75 25 25 12.5 37.5 50 37.5 75 25 25 12.5 37.5 50 37.5 75 25 25 12.5 37.5 50 37.5 75 25 25 12.5 37.5 50 37.5 75 25 25 12.5 37.5 50 37.5 75 25 25 12.5 37.5 49.9999 37.5 75 25 25 12.5 37.5 49.9999 37.5 37.5 25 12.5 12.5 12.5 
VECTORS u float
0 0 0  -0.0391668 -0.0278085 -0.0128951  -0.072096 -0.0875217 -0.0100393  -0.101501 -0.172946 -0.00695261  -0.126906 -0.275636 -0.00469471  -0.148847 -0.389473 -0.00303605  -0.167937 -0.509393 -0.00194994  -0.184651 -0.631567 -0.00144988  -0.19995 -0.753749 -0.00124803  0 0 0  0.000321805 -0.0229402 -0.000433455  -0.00238329 -0.0880257 -0.000490317  -0.00953245 -0.178138 -0.000620639  -0.0203507 -0.284889 -0.000912848  -0.0336816 -0.401608 -0.00122066  -0.0483105 -0.52328 -0.00160253  -0.0634229 -0.646304 -0.00197936  -0.0784712 -0.768606 -0.00217556  0 0 0  0.0371283 -0.0338443 0.0111643  0.0653559 -0.0984268 0.00930575  0.0806344 -0.190284 0.00605482  0.0848589 -0.298691 0.00309997  0.0808353 -0.416424 0.000771294  0.0710895 -0.538546 -0.00113764  0.0576651 -0.661549 -0.00244383  0.0427675 -0.783689 -0.00313029  0 0 0  -0.0382452 -0.0337637 0.00023526  -0.0731408 -0.0921178 -0.000248939  -0.102315 -0.175809 -0.000422686  -0.12732 -0.277208 -0.00066036  -0.148912 -0.390048 -0.000899643  -0.167599 -0.509283 -0.00109628  -0.18421 -0.631029 -0.00131726  -0.199546 -0.752934 -0.00149387  0 0 0  0.000145078 -0.0283314 -0.000321448  -0.00277913 -0.0924042 -0.00054583  -0.00981724 -0.181094 -0.00081566  -0.0203493 -0.286555 -0.00112638  -0.0333877 -0.402329 -0.00139675  -0.0479074 -0.523256 -0.00173286  -0.0629623 -0.64577 -0.00202402  -0.0780549 -0.767811 -0.0022229  0 0 0  0.0371115 -0.0388374 -0.000922263  0.0656692 -0.102907 -0.000596255  0.0810777 -0.19338 -0.000998139  0.0853138 -0.300462 -0.00141564  0.0814543 -0.417183 -0.00189832  0.0716014 -0.538494 -0.00228944  0.0582037 -0.660937 -0.00272584  0.0434875 -0.783018 -0.00295842  0 0 0  -0.038245 -0.0270195 0.0131937  -0.0712273 -0.0869484 0.00969243  -0.100341 -0.172237 0.00612438  -0.125677 -0.274919 0.00330377  -0.147825 -0.388591 0.00128257  -0.166756 -0.508351 -0.000289559  -0.183453 -0.630369 -0.00119984  -0.198996 -0.752352 -0.00168198  0 0 0  0.00078392 -0.0231293 -6.89626e-05  -0.00154603 -0.0872766 -0.000651896  -0.008623 -0.177273 -0.00103891  -0.0194689 -0.283938 -0.00133735  -0.0327089 -0.400545 -0.00162488  -0.0473685 -0.522111 -0.00181848  -0.0624337 -0.644983 -0.00204688  -0.0775018 -0.766884 -0.00222939  0 0 0  0.039148 -0.0320759 -0.0126842  0.0665078 -0.0977208 -0.0105362  0.0816855 -0.189493 -0.00803131  0.0859272 -0.297717 -0.00606328  0.0817003 -0.415331 -0.00449252  0.0718217 -0.537234 -0.00351244  0.0584078 -0.660001 -0.00304133  0.0435476 -0.781842 -0.00293106  0 0 0  -0.0188853 -0.0139295 -0.00503826  -0.0186335 -0.0108183 -0.0105565  0 0 0  0 0 0  -0.00801758 -0.00493145 -0.00531504  -0.0176668 -0.0234483 -0.006596  0.000271112 -0.0052481 -5.23732e-05  -0.00734377 -0.00867403 -0.00278559  0 0 0  0.000205964 -0.0080817 -1.9595e-05  0 0 0  -0.0382889 -0.032311 -0.00634964  -0.0172651 -0.0278037 -0.00300652  -0.0183257 -0.0146378 -0.000155807  -0.00765572 -0.00948142 -0.000500858  0.000111401 -0.0269323 -0.0003151  0.00020504 -0.00879186 -5.03361e-05  -0.0175688 -0.0290624 -0.000115126  -0.0565609 -0.057514 -0.00571597  -0.0561503 -0.0529788 -0.0113647  -0.0264607 -0.0511542 -0.00589819  -0.0354705 -0.0865681 -0.00521142  -0.000697255 -0.0516493 -0.000608331  -0.0270146 -0.0550589 -0.00298914  -0.000732601 -0.0555776 -0.000448123  -0.0731928 -0.0907069 -0.00522009  -0.0363654 -0.0899293 -0.0028258  -0.0561908 -0.0589081 0.000115514  -0.027073 -0.0562866 -0.000132412  -0.00275934 -0.0912927 -0.000521272  -0.000830472 -0.0566576 -0.000326306  -0.0364255 -0.0910905 -0.000419885  -0.0882171 -0.130071 -0.00411581  -0.0871695 -0.127138 -0.00829455  -0.0446488 -0.12801 -0.00451776  -0.053964 -0.17482 -0.00384293  -0.0055753 -0.130321 -0.000667836  -0.0455974 -0.130713 -0.00244416  -0.00579405 -0.13317 -0.000679538  -0.102347 -0.174854 -0.00376341  -0.0547612 -0.176979 -0.00223988  -0.0880647 -0.131009 -0.000102043  -0.0456718 -0.131619 -0.000379592  -0.00986207 -0.180301 -0.000743449  -0.00581253 -0.134061 -0.00067392  -0.0548129 -0.177722 -0.000647932  -0.115211 -0.223921 -0.00296061  -0.114489 -0.222157 -0.00571008  -0.0631897 -0.225547 -0.00335963  -0.0724065 -0.279869 -0.00287633  -0.0146565 -0.2297 -0.000875174  -0.0638851 -0.22719 -0.00200054  -0.0147848 -0.231506 -0.000939235  -0.127406 -0.276628 -0.00273715  -0.0729198 -0.281071 -0.00187762  -0.115063 -0.224472 -0.000392497  -0.0638797 -0.227723 -0.000687003  -0.0204952 -0.286099 -0.00103685  -0.0147072 -0.232054 -0.000976562  -0.0728853 -0.281461 -0.0009166  -0.138541 -0.332098 -0.00215594  -0.138129 -0.331193 -0.00379047  -0.081434 -0.336522 -0.00254056  -0.090364 -0.395356 -0.00221007  -0.0268354 -0.342149 -0.00115158  -0.0818486 -0.337349 -0.00173102  -0.0267975 -0.343125 -0.00122176  -0.149096 -0.389771 -0.00200777  -0.0906274 -0.395831 -0.00167258  -0.138341 -0.332341 -0.000668585  -0.081753 -0.33757 -0.000970483  -0.033623 -0.402098 -0.00133637  -0.026624 -0.343377 -0.00127554  -0.0904942 -0.395966 -0.00116548  -0.158754 -0.448969 -0.00162886  -0.158616 -0.448691 -0.00244613  -0.0990453 -0.455263 -0.00202468  -0.10753 -0.516264 -0.00185005  -0.0409205 -0.461891 -0.00147041  -0.0991936 -0.455501 -0.00161806  -0.0407476 -0.462239 -0.00154026  -0.167915 -0.509207 -0.00155956  -0.107554 -0.516234 -0.00162143  -0.158481 -0.448978 -0.000910372  -0.0990181 -0.45551 -0.00124049  -0.0481534 -0.523237 -0.00168906  -0.0405326 -0.462266 -0.0015693  -0.107359 -0.516163 -0.00142476  -0.176376 -0.570045 -0.00139806  -0.176462 -0.570182 -0.00167629  -0.115732 -0.577415 -0.00180428  -0.123711 -0.638906 -0.00176979  -0.055866 -0.584609 -0.00182178  -0.115685 -0.577249 -0.00165267  -0.0556326 -0.584507 -0.00186729  -0.184491 -0.631111 -0.00142756  -0.123605 -0.638569 -0.00171576  -0.176068 -0.569872 -0.00115871  -0.115452 -0.57707 -0.00151539  -0.0632114 -0.645914 -0.00201954  -0.0553982 -0.58434 -0.00187558  -0.123367 -0.638349 -0.00168166  -0.192195 -0.692188 -0.00138357  -0.192355 -0.69257 -0.00137753  -0.131431 -0.700032 -0.00178585  -0.139034 -0.761136 -0.00176245  -0.0709643 -0.707451 -0.00211282  -0.13131 -0.699639 -0.00176682  -0.0707443 -0.707083 -0.00213574  -0.199787 -0.753131 -0.00141482  -0.138874 -0.760612 -0.00182423  -0.191934 -0.691911 -0.00139177  -0.131062 -0.699335 -0.00176424  -0.0782571 -0.767985 -0.00224267  -0.0705159 -0.706787 -0.00212502  -0.138654 -0.760312 -0.00188506  0 0 0  0 0 0  0.00756228 -0.0075385 0.00544382  0.0178517 -0.0266593 0.0060586  0.0171908 -0.0134924 0.00899602  0.00789541 -0.00994015 0.00250158  0 0 0  0.0181133 -0.0161257 0.00475481  0 0 0  0.0176176 -0.0302941 0.00301754  0.0074853 -0.0104584 0.000280678  0.0369217 -0.0370196 0.00513124  0.0179705 -0.0167899 0.000462592  0.017203 -0.0317222 -0.000355661  0.0254169 -0.0554801 0.00498134  0.030525 -0.0918247 0.00450603  0.0526772 -0.0619752 0.0100056  0.0252266 -0.0590565 0.00229102  0.0530375 -0.0654977 0.00453416  0.0304177 -0.0952396 0.0019916  0.0250719 -0.060317 -0.000491202  0.0656993 -0.101633 0.00426072  0.052771 -0.0667434 -0.000842661  0.0304793 -0.0962993 -0.000561506  0.0336636 -0.134919 0.00330313  0.0346278 -0.1831 0.00265523  0.0742735 -0.141596 0.00736375  0.0335798 -0.13778 0.00124601  0.0746852 -0.144633 0.00307  0.0346406 -0.18547 0.000870019  0.0336726 -0.138654 -0.000851005  0.0809755 -0.192488 0.00244328  0.0746604 -0.14542 -0.000981212  0.0347844 -0.18619 -0.000947148  0.03392 -0.235456 0.00163534  0.0314953 -0.29097 0.00102773  0.08377 -0.24273 0.00429569  0.0339401 -0.237305 0.000222504  0.0841691 -0.244754 0.00134191  0.0316114 -0.292361 -0.000136212  0.0341176 -0.237823 -0.00122347  0.085228 -0.299928 0.000753671  0.0842266 -0.245183 -0.00138083  0.0317993 -0.29275 -0.00132313  0.0278597 -0.348834 0.000231297  0.0229762 -0.408449 -0.000278449  0.083596 -0.356545 0.00172408  0.0279858 -0.349831 -0.000654161  0.0839701 -0.357668 -0.000110075  0.0231991 -0.409113 -0.000958368  0.0282097 -0.35006 -0.00157169  0.0811915 -0.41692 -0.000614971  0.0841265 -0.357836 -0.00179368  0.0234571 -0.409236 -0.00168064  0.0173354 -0.469129 -0.000936652  0.0109093 -0.530549 -0.00139015  0.076431 -0.476999 -0.000342684  0.0175529 -0.469489 -0.00141722  0.0767958 -0.477438 -0.00134668  0.0111656 -0.53064 -0.00169306  0.0178084 -0.469484 -0.00189909  0.0713401 -0.538437 -0.00175132  0.0769908 -0.47737 -0.00217015  0.0114348 -0.530567 -0.00203794  0.00408077 -0.592103 -0.00186136  -0.00318027 -0.653728 -0.00221462  0.0646188 -0.599901 -0.00189634  0.00432301 -0.591993 -0.0020404  0.064903 -0.599809 -0.00227648  -0.0028615 -0.653434 -0.00228955  0.00460148 -0.591805 -0.00223869  0.0579515 -0.661062 -0.00261644  0.0651395 -0.599571 -0.00256255  -0.00261593 -0.6532 -0.00239542  -0.0104983 -0.714962 -0.00249285  -0.0180094 -0.776017 -0.002697  0.0503049 -0.722603 -0.00286122  -0.0102472 -0.714573 -0.00250483  0.0506015 -0.722209 -0.00289272  -0.0177162 -0.775537 -0.00267459  -0.00996947 -0.71427 -0.00253716  0.0431571 -0.783141 -0.00307935  0.0509009 -0.721909 -0.00289798  -0.0174487 -0.775275 -0.00264254  0 0 0  -0.0181263 -0.014156 0.00351804  0 0 0  -0.00733377 -0.00889032 0.00150019  0 0 0  0.000363648 -0.00801826 -0.000276446  0 0 0  -0.038003 -0.0317675 0.00652206  -0.016937 -0.0276987 0.00314134  -0.0199761 -0.00994926 0.0097059  -0.00930338 -0.0063796 0.00485182  0.000261903 -0.0269969 -0.000139654  0.000530034 -0.00576299 -0.00102478  -0.0175453 -0.0233941 0.00631273  -0.0561423 -0.0571983 0.0061273  -0.0266719 -0.0548308 0.00291342  -0.000474095 -0.0553678 -0.000265539  -0.0727181 -0.0904433 0.0048061  -0.0359653 -0.0896443 0.00218403  -0.0549442 -0.0529368 0.0116365  -0.0260981 -0.0507157 0.00551534  -0.00240773 -0.0909979 -0.000535548  0.000341654 -0.0513132 -0.000329077  -0.0349729 -0.0860275 0.00448394  -0.0876683 -0.129714 0.00414312  -0.0451924 -0.130366 0.00172347  -0.00537896 -0.132817 -0.000678599  -0.101844 -0.174511 0.00287366  -0.0543363 -0.176595 0.00100052  -0.0860125 -0.1267 0.0080812  -0.0441116 -0.127257 0.00365329  -0.00943756 -0.179935 -0.000905871  -0.00444853 -0.129656 -0.000716627  -0.0532795 -0.174094 0.00256383  -0.114646 -0.223543 0.00235271  -0.0634515 -0.22678 0.000657439  -0.0143374 -0.231087 -0.00104165  -0.12689 -0.276246 0.0013265  -0.0724857 -0.280638 7.86781e-05  -0.113244 -0.221607 0.00489175  -0.0624998 -0.224699 0.00193036  -0.0200717 -0.285673 -0.00122958  -0.0135654 -0.22892 -0.00107741  -0.0716469 -0.279045 0.00102925  -0.137963 -0.331683 0.000923336  -0.081392 -0.33688 -0.000193417  -0.0263638 -0.342652 -0.00135082  -0.148595 -0.389313 0.000175655  -0.090162 -0.39535 -0.000625134  -0.136966 -0.330501 0.00242019  -0.0806913 -0.335551 0.000557065  -0.0331702 -0.401603 -0.00151139  -0.0257771 -0.341254 -0.00140101  -0.0895817 -0.394376 -0.000136018  -0.158209 -0.448476 -0.000107646  -0.0987408 -0.454982 -0.000840008  -0.0402877 -0.461705 -0.00163156  -0.167363 -0.508674 -0.000683546  -0.107073 -0.515673 -0.0012095  -0.157495 -0.447811 0.000590086  -0.0982137 -0.454198 -0.000484347  -0.0476959 -0.522668 -0.00178057  -0.0398743 -0.460867 -0.00165641  -0.106646 -0.515141 -0.00101686  -0.175793 -0.569464 -0.000899971  -0.11519 -0.576639 -0.00136918  -0.0551686 -0.583879 -0.00189787  -0.183924 -0.630482 -0.00125414  -0.12308 -0.637907 -0.00162381  -0.175272 -0.5691 -0.000680685  -0.114789 -0.576197 -0.00124651  -0.0627298 -0.645238 -0.0020411  -0.0548398 -0.58341 -0.00190067  -0.122757 -0.637612 -0.00158727  -0.191638 -0.691514 -0.00140613  -0.130798 -0.698922 -0.00174463  -0.0702527 -0.706343 -0.0021435  -0.199267 -0.752404 -0.00161964  -0.13839 -0.759847 -0.00190842  -0.191278 -0.691297 -0.00142497  -0.130472 -0.698634 -0.00174552  -0.077764 -0.767177 -0.00225216  -0.069979 -0.706 -0.0021382  -0.138098 -0.759541 -0.00197381  0 0 0  0.00826129 -0.00965035 -0.00207484  0 0 0  0.0181132 -0.0160156 -0.00293916  0 0 0  0.0181563 -0.0303518 -0.0031938  0.00975558 -0.0068686 -0.00541145  0.0379122 -0.0367261 -0.0066542  0.0214399 -0.0127272 -0.00959426  0.0186285 -0.0260408 -0.00640309  0.0255354 -0.0588828 -0.00321126  0.0535898 -0.0651534 -0.00627625  0.0308518 -0.0949623 -0.00301802  0.0260279 -0.0546386 -0.0060541  0.0661741 -0.101368 -0.00558811  0.054098 -0.0607705 -0.0116313  0.031225 -0.0912091 -0.00561899  0.0339822 -0.137464 -0.00293982  0.0751692 -0.144325 -0.00524575  0.0350682 -0.185089 -0.00271338  0.0343285 -0.134106 -0.00503075  0.081436 -0.192102 -0.00453907  0.0753672 -0.140879 -0.00920439  0.0354614 -0.182377 -0.0045622  0.0343521 -0.236898 -0.0026564  0.0846065 -0.244349 -0.00429869  0.0320308 -0.291914 -0.00249416  0.0346674 -0.234527 -0.00409168  0.0856888 -0.299457 -0.00377971  0.0848238 -0.241922 -0.00697184  0.0323658 -0.290095 -0.00372833  0.0283971 -0.349364 -0.00248581  0.0844452 -0.357201 -0.00365502  0.0236161 -0.408586 -0.00237489  0.0286102 -0.347794 -0.00337821  0.0816131 -0.416387 -0.00323057  0.0845473 -0.355584 -0.00524664  0.0238307 -0.407452 -0.00310469  0.0179582 -0.468946 -0.00238746  0.0771716 -0.476871 -0.00314963  0.0115862 -0.53005 -0.00234312  0.0181019 -0.467975 -0.00287277  0.071712 -0.537807 -0.00292522  0.0772359 -0.475879 -0.00396073  0.0117679 -0.529393 -0.00270802  0.00474167 -0.591352 -0.00242358  0.0652859 -0.59914 -0.00295907  -0.00244856 -0.65273 -0.00246936  0.00489402 -0.590782 -0.00262338  0.0583122 -0.660315 -0.00291735  0.0653613 -0.598539 -0.00323778  -0.00226998 -0.652351 -0.00258017  -0.00980425 -0.713812 -0.00257164  0.0509925 -0.72142 -0.00300121  -0.0172517 -0.77471 -0.00260317  -0.00965166 -0.713403 -0.00261241  0.0435572 -0.782274 -0.00298911  0.0510268 -0.720936 -0.00302809  -0.0171258 -0.77428 -0.00259733  
