# vtk DataFile Version 5.1
vtk output
ASCII

DATASET UNSTRUCTURED_GRID
POINTS 435 float
0 0 0
0.4 0 0
0.8 0 0
1.2 0 0
1.6 0 0
2 0 0
2.4 0 0
2.8 0 0
3.2 0 0
3.6 0 0
4 0 0
0 0.25 0
0.4 0.25 0
0.8 0.25 0
1.2 0.25 0
1.6 0.25 0
2 0.25 0
2.4 0.25 0
2.8 0.25 0
3.2 0.25 0
3.6 0.25 0
4 0.25 0
0 0.5 0
0.4 0.5 0
0.8 0.5 0
1.2 0.5 0
1.6 0.5 0
2 0.5 0
2.4 0.5 0
2.8 0.5 0
3.2 0.5 0
3.6 0.5 0
4 0.5 0
0 0.75 0
0.4 0.75 0
0.8 0.75 0
1.2 0.75 0
1.6 0.75 0
2 0.75 0
2.4 0.75 0
2.8 0.75 0
3.2 0.75 0
3.6 0.75 0
4 0.75 0
0 1 0
0.4 1 0
0.8 1 0
1.2 1 0
1.6 1 0
2 1 0
2.4 1 0
2.8 1 0
3.2 1 0
3.6 1 0
4 1 0
0 0 0.25
0.4 0 0.25
0.8 0 0.25
1.2 0 0.25
1.6 0 0.25
2 0 0.25
2.4 0 0.25
2.8 0 0.25
3.2 0 0.25
3.6 0 0.25
4 0 0.25
0 0.25 0.25
0.4 0.25 0.25
0.8 0.25 0.25
1.2 0.25 0.25
1.6 0.25 0.25
2 0.25 0.25
2.4 0.25 0.25
2.8 0.25 0.25
3.2 0.25 0.25
3.6 0.25 0.25
4 0.25 0.25
0 0.5 0.25
0.4 0.5 0.25
0.8 0.5 0.25
1.2 0.5 0.25
1.6 0.5 0.25
2 0.5 0.25
2.4 0.5 0.25
2.8 0.5 0.25
3.2 0.5 0.25
3.6 0.5 0.25
4 0.5 0.25
0 0.75 0.25
0.4 0.75 0.25
0.8 0.75 0.25
1.2 0.75 0.25
1.6 0.75 0.25
2 0.75 0.25
2.4 0.75 0.25
2.8 0.75 0.25
3.2 0.75 0.25
3.6 0.75 0.25
4 0.75 0.25
0 1 0.25
0.4 1 0.25
0.8 1 0.25
1.2 1 0.25
1.6 1 0.25
2 1 0.25
2.4 1 0.25
2.8 1 0.25
3.2 1 0.25
3.6 1 0.25
4 1 0.25
0 0 0.5
0.4 0 0.5
0.8 0 0.5
1.2 0 0.5
1.6 0 0.5
2 0 0.5
2.4 0 0.5
2.8 0 0.5
3.2 0 0.5
3.6 0 0.5
4 0 0.5
0 0.25 0.5
0.4 0.25 0.5
0.8 0.25 0.5
1.2 0.25 0.5
1.6 0.25 0.5
2 0.25 0.5
2.4 0.25 0.5
2.8 0.25 0.5
3.2 0.25 0.5
3.6 0.25 0.5
4 0.25 0.5
0 0.5 0.5
0.4 0.5 0.5
0.8 0.5 0.5
1.2 0.5 0.5
1.6 0.5 0.5
2 0.5 0.5
2.4 0.5 0.5
2.8 0.5 0.5
3.2 0.5 0.5
3.6 0.5 0.5
4 0.5 0.5
0 0.75 0.5
0.4 0.75 0.5
0.8 0.75 0.5
1.2 0.75 0.5
1.6 0.75 0.5
2 0.75 0.5
2.4 0.75 0.5
2.8 0.75 0.5
3.2 0.75 0.5
3.6 0.75 0.5
4 0.75 0.5
0 1 0.5
0.4 1 0.5
0.8 1 0.5
1.2 1 0.5
1.6 1 0.5
2 1 0.5
2.4 1 0.5
2.8 1 0.5
3.2 1 0.5
3.6 1 0.5
4 1 0.5
0 0 0.75
0.4 0 0.75
0.8 0 0.75
1.2 0 0.75
1.6 0 0.75
2 0 0.75
2.4 0 0.75
2.8 0 0.75
3.2 0 0.75
3.6 0 0.75
4 0 0.75
0 0.25 0.75
0.4 0.25 0.75
0.8 0.25 0.75
1.2 0.25 0.75
1.6 0.25 0.75
2 0.25 0.75
2.4 0.25 0.75
2.8 0.25 0.75
3.2 0.25 0.75
3.6 0.25 0.75
4 0.25 0.75
0 0.5 0.75
0.4 0.5 0.75
0.8 0.5 0.75
1.2 0.5 0.75
1.6 0.5 0.75
2 0.5 0.75
2.4 0.5 0.75
2.8 0.5 0.75
3.2 0.5 0.75
3.6 0.5 0.75
4 0.5 0.75
0 0.75 0.75
0.4 0.75 0.75
0.8 0.75 0.75
1.2 0.75 0.75
1.6 0.75 0.75
2 0.75 0.75
2.4 0.75 0.75
2.8 0.75 0.75
3.2 0.75 0.75
3.6 0.75 0.75
4 0.75 0.75
0 1 0.75
0.4 1 0.75
0.8 1 0.75
1.2 1 0.75
1.6 1 0.75
2 1 0.75
2.4 1 0.75
2.8 1 0.75
3.2 1 0.75
3.6 1 0.75
4 1 0.75
0 0 1
0.4 0 1
0.8 0 1
1.2 0 1
1.6 0 1
2 0 1
2.4 0 1
2.8 0 1
3.2 0 1
3.6 0 1
4 0 1
0 0.25 1
0.4 0.25 1
0.8 0.25 1
1.2 0.25 1
1.6 0.25 1
2 0.25 1
2.4 0.25 1
2.8 0.25 1
3.2 0.25 1
3.6 0.25 1
4 0.25 1
0 0.5 1
0.4 0.5 1
0.8 0.5 1
1.2 0.5 1
1.6 0.5 1
2 0.5 1
2.4 0.5 1
2.8 0.5 1
3.2 0.5 1
3.6 0.5 1
4 0.5 1
0 0.75 1
0.4 0.75 1
0.8 0.75 1
1.2 0.75 1
1.6 0.75 1
2 0.75 1
2.4 0.75 1
2.8 0.75 1
3.2 0.75 1
3.6 0.75 1
4 0.75 1
0 1 1
0.4 1 1
0.8 1 1
1.2 1 1
1.6 1 1
2 1 1
2.4 1 1
2.8 1 1
3.2 1 1
3.6 1 1
4 1 1
0.2 0.125 0.125
0.6 0.125 0.125
1 0.125 0.125
1.4 0.125 0.125
1.8 0.125 0.125
2.2 0.125 0.125
2.6 0.125 0.125
3 0.125 0.125
3.4 0.125 0.125
3.8 0.125 0.125
0.2 0.375 0.125
0.6 0.375 0.125
1 0.375 0.125
1.4 0.375 0.125
1.8 0.375 0.125
2.2 0.375 0.125
2.6 0.375 0.125
3 0.375 0.125
3.4 0.375 0.125
3.8 0.375 0.125
0.2 0.625 0.125
0.6 0.625 0.125
1 0.625 0.125
1.4 0.625 0.125
1.8 0.625 0.125
2.2 0.625 0.125
2.6 0.625 0.125
3 0.625 0.125
3.4 0.625 0.125
3.8 0.625 0.125
0.2 0.875 0.125
0.6 0.875 0.125
1 0.875 0.125
1.4 0.875 0.125
1.8 0.875 0.125
2.2 0.875 0.125
2.6 0.875 0.125
3 0.875 0.125
3.4 0.875 0.125
3.8 0.875 0.125
0.2 0.125 0.375
0.6 0.125 0.375
1 0.125 0.375
1.4 0.125 0.375
1.8 0.125 0.375
2.2 0.125 0.375
2.6 0.125 0.375
3 0.125 0.375
3.4 0.125 0.375
3.8 0.125 0.375
0.2 0.375 0.375
0.6 0.375 0.375
1 0.375 0.375
1.4 0.375 0.375
1.8 0.375 0.375
2.2 0.375 0.375
2.6 0.375 0.375
3 0.375 0.375
3.4 0.375 0.375
3.8 0.375 0.375
0.2 0.625 0.375
0.6 0.625 0.375
1 0.625 0.375
1.4 0.625 0.375
1.8 0.625 0.375
2.2 0.625 0.375
2.6 0.625 0.375
3 0.625 0.375
3.4 0.625 0.375
3.8 0.625 0.375
0.2 0.875 0.375
0.6 0.875 0.375
1 0.875 0.375
1.4 0.875 0.375
1.8 0.875 0.375
2.2 0.875 0.375
2.6 0.875 0.375
3 0.875 0.375
3.4 0.875 0.375
3.8 0.875 0.375
0.2 0.125 0.625
0.6 0.125 0.625
1 0.125 0.625
1.4 0.125 0.625
1.8 0.125 0.625
2.2 0.125 0.625
2.6 0.125 0.625
3 0.125 0.625
3.4 0.125 0.625
3.8 0.125 0.625
0.2 0.375 0.625
0.6 0.375 0.625
1 0.375 0.625
1.4 0.375 0.625
1.8 0.375 0.625
2.2 0.375 0.625
2.6 0.375 0.625
3 0.375 0.625
3.4 0.375 0.625
3.8 0.375 0.625
0.2 0.625 0.625
0.6 0.625 0.625
1 0.625 0.625
1.4 0.625 0.625
1.8 0.625 0.625
2.2 0.625 0.625
2.6 0.625 0.625
3 0.625 0.625
3.4 0.625 0.625
3.8 0.625 0.625
0.2 0.875 0.625
0.6 0.875 0.625
1 0.875 0.625
1.4 0.875 0.625
1.8 0.875 0.625
2.2 0.875 0.625
2.6 0.875 0.625
3 0.875 0.625
3.4 0.875 0.625
3.8 0.875 0.625
0.2 0.125 0.875
0.6 0.125 0.875
1 0.125 0.875
1.4 0.125 0.875
1.8 0.125 0.875
2.2 0.125 0.875
2.6 0.125 0.875
3 0.125 0.875
3.4 0.125 0.875
3.8 0.125 0.875
0.2 0.375 0.875
0.6 0.375 0.875
1 0.375 0.875
1.4 0.375 0.875
1.8 0.375 0.875
2.2 0.375 0.875
2.6 0.375 0.875
3 0.375 0.875
3.4 0.375 0.875
3.8 0.375 0.875
0.2 0.625 0.875
0.6 0.625 0.875
1 0.625 0.875
1.4 0.625 0.875
1.8 0.625 0.875
2.2 0.625 0.875
2.6 0.625 0.875
3 0.625 0.875
3.4 0.625 0.875
3.8 0.625 0.875
0.2 0.875 0.875
0.6 0.875 0.875
1 0.875 0.875
1.4 0.875 0.875
1.8 0.875 0.875
2.2 0.875 0.875
2.6 0.875 0.875
3 0.875 0.875
3.4 0.875 0.875
3.8 0.875 0.875

CELLS 961 4800
OFFSETS vtktypeint64
[...]
POINT_DATA 435
SCALARS weights float 1
LOOKUP_TABLE default
2.5 5 5 5 5 5 5 5 5 5 2.5 5 10 10 10 10 10 10 10 10 10 5 5 10 10 10 10 10 10 10 10 10 5 5 10 10 10 10 10 10 10 10 10 5 2.5 5 5 5 5 5 5 5 5 5 2.5 5 10 10 10 10 10 10 10 10 10 5 10 20 20 20 20 20 20 20 20 20 9.99999 10 20 20 20 20 20 20 20 20 20 9.99999 10 20 20 20 20 20 20 20 20 20 9.99999 5 10 10 10 10 10 10 10 10 10 5 5 10 10 10 10 10 10 10 10 10 5 10 20 20 20 20 20 20 20 20 20 9.99999 10 20 20 20 20 20 20 20 20 20 9.99999 10 20 20 20 20 20 20 20 20 20 10 5 10 10 10 10 10 10 10 10 10 5 5 10 10 10 10 10 10 10 10 10 5 10 20 20 20 20 20 20 20 20 20 10 10 20 20 20 20 20 20 20 20 20 10 10 20 20 20 20 20 20 20 20 20 10 5 10 10 10 10 10 10 10 10 10 5 2.5 5 5 5 5 5 5 5 5 5 2.5 5 10 10 10 10 10 10 10 10 10 5 5 10 10 10 10 10 10 10 10 10 5 5 10 10 10 10 10 10 10 10 10 5 2.5 5 5 5 5 5 5 5 5 5 2.5 5 5 5 5 5 5 5 5 5 5 5 5 5 5 5 5 5 5 5 5 5 5 5 5 5 5 5 5 5 5 5 5 5 5 5 5 5 5 5 5 5 5 5 5 5 5 5 5 5 5 5 5 5 5 5 5 5 5 5 5 5 5 5 5 5 5 5 5 5 5 5 5 5 5 5 5 5 5 5 5 5 5 5 5 5 5 5 5 5 5 5 5 5 5 5 5 5 5 5 5 5 5 5 5 5 5 5 5 5 5 5 5 5 5 5 5 5 5 5 5 5 5 5 5 5 5 5 5 5 5 5 5 5 5 5 5 5 5 5 5 5 5 5 5 5 5 5 5 5 5 5 5 5 5 5 5 5 5 5 5 
VECTORS u float
0 0 0  -0.0278222 -0.0201266 -0.0112496  -0.0529901 -0.0553444 -0.0093608  -0.0755676 -0.10913 -0.00735792  -0.0957673 -0.175652 -0.00542044  -0.113626 -0.251636 -0.00380486  -0.129455 -0.334253 -0.00247111  -0.143383 -0.421109 -0.00137576  -0.155687 -0.510176 -0.000573603  -0.166807 -0.600008 -0.000176818  -0.177282 -0.689654 8.15471e-05  0 0 0  -0.011684 -0.0145335 -0.00642239  -0.0251758 -0.0531535 -0.00511226  -0.0381671 -0.108847 -0.00393597  -0.0512465 -0.177339 -0.00285897  -0.0642042 -0.25492 -0.00196095  -0.0766973 -0.338823 -0.00124616  -0.0887005 -0.426571 -0.000608259  -0.100055 -0.516165 -0.000181391  -0.110888 -0.606215 7.07136e-05  -0.121322 -0.695904 0.000287031  0 0 0  0.000397086 -0.0135459 -6.18874e-05  -0.000467122 -0.0533092 -9.24462e-06  -0.00375116 -0.11045 5.25899e-05  -0.00929904 -0.180196 0.000120274  -0.0167674 -0.258958 0.000170256  -0.0256095 -0.343778 0.000185026  -0.0352323 -0.432167 0.000230082  -0.0453925 -0.522119 0.000296842  -0.0554674 -0.612378 0.000320555  -0.0656469 -0.702082 0.000446581  0 0 0  0.0121709 -0.0162093 0.00624648  0.0238708 -0.0564707 0.00511592  0.0303391 -0.114126 0.00406342  0.0323788 -0.1847 0.00309895  0.0304668 -0.264148 0.00229877  0.025456 -0.349517 0.00160491  0.0181453 -0.438197 0.00109274  0.00939584 -0.528368 0.000795774  -0.000157356 -0.618651 0.000552505  -0.0100372 -0.70835 0.000542186  0 0 0  0.0274127 -0.0231781 0.010931  0.050518 -0.0621104 0.00925134  0.0665196 -0.120214 0.00741026  0.0757966 -0.19102 0.00564046  0.0791624 -0.27074 0.00410147  0.0776827 -0.356217 0.00281676  0.072541 -0.444863 0.00185043  0.0647786 -0.534953 0.00121213  0.0556133 -0.625077 0.000775251  0.0458155 -0.714724 0.000672338  0 0 0  -0.0269582 -0.0235442 -0.00520565  -0.0537868 -0.0587883 -0.00499304  -0.0765786 -0.111753 -0.00381416  -0.0966527 -0.177595 -0.00282711  -0.114378 -0.253017 -0.00199081  -0.130018 -0.335175 -0.00130218  -0.143761 -0.421689 -0.000705153  -0.155964 -0.51051 -0.000268042  -0.166988 -0.600198 -4.75049e-05  -0.177451 -0.689773 0.000128865  0 0 0  -0.0110355 -0.0178833 -0.00291264  -0.0258746 -0.0565864 -0.0026702  -0.0391062 -0.111567 -0.00196104  -0.052107 -0.179364 -0.00142173  -0.0648357 -0.256385 -0.000969201  -0.0772579 -0.339808 -0.000604466  -0.0891025 -0.42716 -0.000248849  -0.100387 -0.516483 -7.13766e-06  -0.111291 -0.606405 0.00012365  -0.121495 -0.696035 0.000282228  0 0 0  0.000200361 -0.0169459 -5.32269e-05  -0.00090003 -0.0567946 -2.66731e-05  -0.00423455 -0.113289 2.45273e-05  -0.00974989 -0.182347 7.6741e-05  -0.0170773 -0.260508 0.000124186  -0.0258212 -0.344844 0.000146985  -0.0354292 -0.432824 0.000199705  -0.0453768 -0.522516 0.000275522  -0.0556228 -0.612592 0.000293255  -0.0657907 -0.702257 0.000406206  0 0 0  0.0112002 -0.0194431 0.00280875  0.0237281 -0.0598872 0.00262979  0.0303074 -0.116945 0.00202394  0.0323001 -0.186828 0.00156695  0.0304146 -0.265715 0.00120473  0.0254023 -0.350581 0.000886232  0.0181353 -0.438888 0.0006648  0.00937843 -0.528777 0.000564009  -4.62532e-05 -0.618882 0.000457942  -0.0100508 -0.708486 0.00049606  0 0 0  0.0262621 -0.0264105 0.00506318  0.0504669 -0.0654657 0.0049006  0.0665578 -0.122898 0.00382566  0.0758809 -0.193106 0.00296867  0.0792217 -0.272256 0.00220397  0.0777297 -0.357238 0.00157684  0.0725613 -0.445544 0.00111538  0.0649211 -0.535347 0.000847429  0.0556571 -0.625281 0.000615001  0.0457659 -0.714787 0.000625908  0 0 0  -0.0272075 -0.0247058 -5.54025e-05  -0.0537359 -0.060111 -5.47171e-05  -0.0768352 -0.11275 -8.23736e-05  -0.0968944 -0.178352 -0.000101835  -0.114581 -0.253586 -8.61585e-05  -0.130175 -0.335597 -6.31511e-05  -0.143881 -0.421977 -1.90735e-05  -0.156079 -0.510689 7.86781e-05  -0.167041 -0.600303 0.000110507  -0.177522 -0.689833 0.000194848  0 0 0  -0.0110444 -0.0187926 -1.07884e-05  -0.0259062 -0.0577626 -8.19564e-06  -0.0393838 -0.112548 -7.45058e-06  -0.0523652 -0.180112 -2.57194e-05  -0.0651143 -0.256955 2.32458e-06  -0.0774767 -0.340219 4.04716e-05  -0.0892985 -0.427425 7.26581e-05  -0.100598 -0.516642 0.000181079  -0.111452 -0.606512 0.00019455  -0.121609 -0.696118 0.000282586  0 0 0  0.00012815 -0.0177331 3.57628e-05  -0.000998676 -0.0578518 2.50936e-05  -0.00442147 -0.114232 2.87294e-05  -0.00986612 -0.183095 4.19021e-05  -0.0171959 -0.26109 7.05719e-05  -0.0259938 -0.345235 0.000116944  -0.0355647 -0.433095 0.000163615  -0.0454388 -0.522685 0.000268936  -0.055774 -0.612723 0.000275195  -0.0659032 -0.702419 0.000365198  0 0 0  0.0111054 -0.0203162 8.57115e-05  0.0235105 -0.0610113 9.0301e-05  0.0302751 -0.117914 7.95126e-05  0.0321771 -0.187625 0.00012064  0.0302987 -0.266301 0.000160396  0.0253994 -0.351 0.000206053  0.0181091 -0.439201 0.000242114  0.00935936 -0.528984 0.000328958  -3.3617e-05 -0.619023 0.00036937  -0.0102026 -0.70861 0.000454783  0 0 0  0.0263156 -0.0275381 8.91685e-05  0.0501917 -0.0666717 0.000143349  0.0665179 -0.123827 0.000157356  0.0757904 -0.193872 0.000197709  0.0791073 -0.272841 0.000228405  0.0776448 -0.357638 0.000286162  0.0725291 -0.445844 0.000356078  0.0648544 -0.535561 0.000434697  0.0555465 -0.62535 0.000471771  0.0456629 -0.714849 0.000573516  0 0 0  -0.0269592 -0.0235833 0.00507885  -0.0537732 -0.0589008 0.00489551  -0.0766561 -0.111902 0.00366771  -0.0967697 -0.177749 0.00261521  -0.114458 -0.253175 0.00183028  -0.130093 -0.335357 0.00119913  -0.143916 -0.421861 0.000688136  -0.156206 -0.510695 0.000435591  -0.167137 -0.600333 0.000258505  -0.177621 -0.689876 0.000272036  0 0 0  -0.0110154 -0.0179205 0.002886  -0.025869 -0.0566859 0.00265199  -0.0391307 -0.111704 0.00195992  -0.0522211 -0.179509 0.00135916  -0.0649514 -0.256557 0.000980258  -0.0773654 -0.339961 0.000655293  -0.0892055 -0.427332 0.000426292  -0.100605 -0.516646 0.000338912  -0.11149 -0.606536 0.000280142  -0.121754 -0.696153 0.000307381  0 0 0  0.000195533 -0.0169805 0.000115216  -0.000897467 -0.0569041 0.000104606  -0.00428617 -0.113398 5.35846e-05  -0.00985658 -0.182481 1.0252e-05  -0.0172428 -0.260693 3.08752e-05  -0.0259278 -0.344984 0.000102282  -0.0356591 -0.432963 0.000114918  -0.0455182 -0.522657 0.000231445  -0.0557852 -0.612737 0.000278234  -0.0660217 -0.702436 0.000365853  0 0 0  0.0112102 -0.0194744 -0.00264513  0.0237441 -0.059993 -0.00244254  0.0302576 -0.117043 -0.00185645  0.0322398 -0.18696 -0.00133318  0.0303068 -0.265886 -0.000890911  0.0252504 -0.350713 -0.000475585  0.0179892 -0.439049 -0.000158548  0.00931716 -0.528949 9.23276e-05  -0.000149727 -0.619037 0.000300765  -0.0103209 -0.708671 0.000436068  0 0 0  0.0262851 -0.0264374 -0.00488245  0.0504757 -0.065585 -0.00459993  0.0665629 -0.122984 -0.00352085  0.0758189 -0.193224 -0.00255579  0.0791497 -0.27243 -0.00171763  0.0776 -0.35738 -0.000995576  0.0724399 -0.445726 -0.000433445  0.0647781 -0.53553 2.87294e-05  0.055433 -0.625396 0.00036943  0.0455747 -0.714975 0.000489831  0 0 0  -0.0278893 -0.0202391 0.0111345  -0.0530756 -0.0555572 0.00926113  -0.0757172 -0.10941 0.00725019  -0.0959294 -0.175957 0.00519764  -0.113847 -0.251951 0.00361609  -0.129652 -0.334586 0.00236261  -0.143658 -0.421474 0.00137198  -0.155945 -0.510518 0.000769138  -0.16714 -0.600326 0.0003829  -0.177506 -0.689914 0.000317454  0 0 0  -0.0117 -0.0146494 0.00638032  -0.0252386 -0.0533535 0.00510406  -0.0382839 -0.109104 0.00393581  -0.0514625 -0.177609 0.0028044  -0.0644022 -0.255256 0.00200319  -0.0769401 -0.339152 0.00131691  -0.0889711 -0.426894 0.000812173  -0.100426 -0.516476 0.000500917  -0.111239 -0.606512 0.000337481  -0.12172 -0.696173 0.000341892  0 0 0  0.000394285 -0.0136437 0.000123382  -0.000495672 -0.0535017 0.000108719  -0.00382161 -0.110664 4.48227e-05  -0.00944352 -0.180482 -2.09808e-05  -0.016955 -0.259298 -1.97291e-05  -0.0258465 -0.3441 8.02279e-05  -0.0355279 -0.432461 7.1764e-05  -0.0456529 -0.522425 0.000176191  -0.0558844 -0.612679 0.000294447  -0.0660195 -0.702402 0.000361204  0 0 0  0.0122044 -0.0163087 -0.00610614  0.0238937 -0.0566539 -0.0049156  0.030315 -0.114352 -0.00387424  0.0322056 -0.184997 -0.00285262  0.0302217 -0.264466 -0.00197232  0.0251865 -0.349812 -0.00117278  0.0178502 -0.438503 -0.000589073  0.00917006 -0.528701 -0.000136435  -0.00041604 -0.618978 0.00025773  -0.0103433 -0.708697 0.000387192  0 0 0  0.0274503 -0.0232478 -0.0107815  0.05057 -0.0623078 -0.00892061  0.0665001 -0.120433 -0.00709063  0.0757542 -0.191336 -0.00521249  0.0789869 -0.27105 -0.00360608  0.0774639 -0.356499 -0.00221235  0.0722482 -0.445189 -0.00116968  0.0645132 -0.535287 -0.000338435  0.0553679 -0.62541 0.000257492  0.0455785 -0.715092 0.000393152  -0.00796421 -0.00826339 -0.00319638  -0.0298398 -0.0365736 -0.00613064  -0.0484615 -0.0824358 -0.00493727  -0.0657518 -0.143373 -0.00371383  -0.0817008 -0.215366 -0.0026614  -0.0964093 -0.295247 -0.00180127  -0.109885 -0.380423 -0.00106841  -0.122197 -0.468658 -0.000494629  -0.13355 -0.55826 -0.000137471  -0.1442 -0.648027 9.59337e-05  -0.0022583 -0.00704476 -0.00116769  -0.00930697 -0.0345136 -0.00223804  -0.0171818 -0.0823821 -0.00172798  -0.0259191 -0.144961 -0.00124836  -0.0356474 -0.218409 -0.000835218  -0.046037 -0.29952 -0.000521295  -0.0567436 -0.385598 -0.000245929  -0.0674667 -0.474422 1.65403e-06  -0.0780625 -0.564315 0.00013499  -0.0884461 -0.654236 0.000287384  0.00241117 -0.00743747 0.00109076  0.00898725 -0.0358271 0.00213362  0.0125706 -0.084606 0.0017478  0.0124414 -0.148187 0.00138253  0.00921226 -0.22262 0.00109103  0.0034132 -0.304549 0.000828594  -0.00429654 -0.39123 0.000623852  -0.013258 -0.480417 0.000518113  -0.0228739 -0.570507 0.000440091  -0.032831 -0.660457 0.000441492  0.00795056 -0.00938714 0.00308156  0.0287849 -0.0405201 0.00596647  0.043045 -0.0891966 0.00492752  0.0515507 -0.153321 0.00383449  0.0546921 -0.228276 0.00288796  0.0533869 -0.310622 0.00208643  0.0486078 -0.397535 0.0014502  0.041321 -0.486833 0.00102238  0.0325007 -0.576932 0.000730723  0.022846 -0.666791 0.000585571  -0.00788863 -0.00935551 -0.00104472  -0.029708 -0.0388752 -0.00193697  -0.0490316 -0.0845513 -0.00171778  -0.0663612 -0.145001 -0.00128067  -0.0822223 -0.216567 -0.000931203  -0.0968366 -0.296107 -0.000621647  -0.110219 -0.380993 -0.00035435  -0.122447 -0.469006 -0.000115603  -0.133772 -0.558467 4.74155e-05  -0.144358 -0.648138 0.000154495  -0.00224599 -0.00808778 -0.000361919  -0.0093388 -0.0366306 -0.000680834  -0.0176038 -0.0844492 -0.000577092  -0.0263705 -0.146598 -0.000397056  -0.0360222 -0.21964 -0.000262976  -0.0463448 -0.300403 -0.000132948  -0.0570111 -0.386179 -1.11461e-05  -0.0676479 -0.474763 0.000116825  -0.0782547 -0.564538 0.000198156  -0.0886424 -0.654392 0.000273824  0.00230414 -0.00845563 0.000353187  0.00865769 -0.0379046 0.000686288  0.0123829 -0.086674 0.000607431  0.0122548 -0.149861 0.000488311  0.00904083 -0.223877 0.000413984  0.00328803 -0.305442 0.00036478  -0.0044024 -0.391835 0.000325978  -0.0133173 -0.480822 0.000335723  -0.0228841 -0.570729 0.000350893  -0.0329053 -0.660641 0.000385731  0.00778443 -0.0104197 0.00101626  0.0282931 -0.0427082 0.00193033  0.0430053 -0.0913062 0.00174651  0.0515114 -0.154986 0.00136572  0.0546335 -0.229558 0.00107992  0.053354 -0.311539 0.000847161  0.0485883 -0.398154 0.000666589  0.0413251 -0.487236 0.000564456  0.0325181 -0.577185 0.000510663  0.0228217 -0.666907 0.00050813  -0.00788343 -0.00936393 0.000949383  -0.0296989 -0.038914 0.00187945  -0.0490393 -0.0846126 0.00164396  -0.0664091 -0.145077 0.0011701  -0.0822736 -0.216648 0.00082773  -0.0968831 -0.296196 0.000570595  -0.110273 -0.381077 0.000374258  -0.122545 -0.469096 0.000271738  -0.133878 -0.558547 0.000241041  -0.144458 -0.648196 0.000233769  -0.00224496 -0.00809744 0.000365496  -0.00933397 -0.0366619 0.000704646  -0.0176083 -0.0845051 0.000603557  -0.0264099 -0.146658 0.000415206  -0.0360879 -0.219721 0.000305414  -0.0464075 -0.300478 0.000251949  -0.0570824 -0.386262 0.000204623  -0.0677407 -0.474831 0.00022459  -0.0783396 -0.564611 0.000262976  -0.0887468 -0.654462 0.000286639  0.00230199 -0.00846106 -0.000285566  0.00866461 -0.0379407 -0.000563085  0.0123707 -0.0867293 -0.000494301  0.0122142 -0.14992 -0.000351727  0.00898373 -0.223957 -0.000218272  0.00321317 -0.305528 -8.24928e-05  -0.00447822 -0.391898 3.42131e-05  -0.0133951 -0.480892 0.000169575  -0.0229366 -0.570807 0.00026679  -0.0330012 -0.66073 0.00034517  0.00778657 -0.0104241 -0.000864983  0.0282995 -0.042743 -0.00172967  0.0430092 -0.0913569 -0.0015099  0.051492 -0.155041 -0.00108582  0.0545976 -0.229626 -0.000720918  0.0532908 -0.311612 -0.000409544  0.0485115 -0.398234 -0.00012219  0.0412712 -0.487335 0.000114739  0.0324593 -0.577265 0.00029093  0.0227187 -0.66698 0.000427783  -0.0079852 -0.00831199 0.00309461  -0.0298605 -0.0366957 0.00606853  -0.0485181 -0.0826169 0.00487888  -0.0658803 -0.143594 0.00361687  -0.0818591 -0.215587 0.00255382  -0.0965564 -0.295493 0.00174981  -0.110052 -0.38067 0.00110149  -0.122438 -0.468921 0.000674427  -0.133821 -0.558496 0.000411868  -0.144464 -0.648233 0.000316978  -0.00225873 -0.00707504 0.0011636  -0.00931376 -0.0346181 0.00226617  -0.0172201 -0.0825454 0.00177443  -0.0260291 -0.145147 0.00127929  -0.0358083 -0.218651 0.000893235  -0.0462019 -0.299769 0.000639379  -0.056952 -0.385844 0.000451624  -0.0677061 -0.474641 0.00032568  -0.0783327 -0.564547 0.000308216  -0.0887475 -0.654446 0.000318587  0.00241581 -0.00746346 -0.00102401  0.00900137 -0.0359339 -0.00201201  0.0125446 -0.0847607 -0.00161058  0.0123513 -0.148374 -0.00124419  0.00906551 -0.222852 -0.000894368  0.00322199 -0.304787 -0.000543773  -0.00452375 -0.391438 -0.000249922  -0.0134676 -0.48064 -3.28422e-05  -0.0230606 -0.570738 0.000183403  -0.0331101 -0.660711 0.00034678  0.00798099 -0.00942647 -0.00293827  0.0288171 -0.0406228 -0.00576311  0.0430524 -0.0893498 -0.00467592  0.0514977 -0.153505 -0.00355119  0.0545728 -0.228507 -0.00252616  0.0532289 -0.310853 -0.00162387  0.0483935 -0.397763 -0.000904083  0.0411301 -0.487091 -0.000340164  0.0323217 -0.577179 0.000108004  0.0226109 -0.667032 0.000369191  
