# vtk DataFile Version 5.1
vtk output
ASCII

DATASET UNSTRUCTURED_GRID
POINTS 490 float
0 0 0
1.33333 0 0
2.66667 0 0
4 0 0
0 0.5 0
1.33333 0.5 0
2.66667 0.5 0
4 0.5 0
0 1 0
1.33333 1 0
2.66667 1 0
4 1 0
0 0 0.5
1.33333 0 0.5
2.66667 0 0.5
4 0 0.5
0 0.5 0.5
1.33333 0.5 0.5
2.66667 0.5 0.5
4 0.5 0.5
0 1 0.5
1.33333 1 0.5
2.66667 1 0.5
4 1 0.5
0 0 1
1.33333 0 1
2.66667 0 1
4 0 1
0 0.5 1
1.33333 0.5 1
2.66667 0.5 1
4 0.5 1
0 1 1
1.33333 1 1
2.66667 1 1
4 1 1
0 0 0.166667
0 0 0.333333
0.444444 0 0.333333
0.888889 0 0.166667
0.888889 0 0
0.444444 0 0
0 0.166667 0
0 0.333333 0
0 0.166667 0.333333
0 0.333333 0.166667
0.888889 0.166667 0
0.444444 0.333333 0
0 0.166667 0.166667
0.444444 0.166667 0.166667
0.444444 0.166667 0
0.444444 0 0.166667
1.33333 0.166667 0
1.33333 0.333333 0
0.888889 0.5 0
0.444444 0.5 0
0.888889 0.333333 0.166667
0.444444 0.166667 0.333333
0.888889 0.166667 0.166667
0.444444 0.333333 0.166667
0.888889 0.333333 0
0 0.166667 0.5
0 0.333333 0.5
0.444444 0.5 0.333333
0.888889 0.5 0.166667
0 0.5 0.333333
0 0.5 0.166667
0 0.333333 0.333333
0.444444 0.5 0.166667
0.444444 0.333333 0.333333
1.33333 0 0.166667
1.33333 0 0.333333
1.33333 0.166667 0.333333
1.33333 0.333333 0.166667
0.888889 0 0.5
0.444444 0 0.5
0.888889 0 0.333333
0.888889 0.166667 0.333333
1.33333 0.166667 0.166667
0.888889 0.166667 0.5
0.444444 0.333333 0.5
0.444444 0.166667 0.5
0.888889 0.333333 0.333333
1.33333 0.5 0.166667
1.33333 0.5 0.333333
0.444444 0.5 0.5
0.888889 0.5 0.5
1.33333 0.166667 0.5
1.33333 0.333333 0.5
0.888889 0.5 0.333333
0.888889 0.333333 0.5
1.33333 0.333333 0.333333
1.77778 0 0.333333
2.22222 0 0.166667
2.22222 0 0
1.77778 0 0
2.22222 0.166667 0
1.77778 0.333333 0
1.77778 0.166667 0.166667
1.77778 0.166667 0
1.77778 0 0.166667
2.66667 0.166667 0
2.66667 0.333333 0
2.22222 0.5 0
1.77778 0.5 0
2.22222 0.333333 0.166667
1.77778 0.166667 0.333333
2.22222 0.166667 0.166667
1.77778 0.333333 0.166667
2.22222 0.333333 0
1.77778 0.5 0.333333
2.22222 0.5 0.166667
1.77778 0.5 0.166667
1.77778 0.333333 0.333333
2.66667 0 0.166667
2.66667 0 0.333333
2.66667 0.166667 0.333333
2.66667 0.333333 0.166667
2.22222 0 0.5
1.77778 0 0.5
2.22222 0 0.333333
2.22222 0.166667 0.333333
2.66667 0.166667 0.166667
2.22222 0.166667 0.5
1.77778 0.333333 0.5
1.77778 0.166667 0.5
2.22222 0.333333 0.333333
2.66667 0.5 0.166667
2.66667 0.5 0.333333
1.77778 0.5 0.5
2.22222 0.5 0.5
2.66667 0.166667 0.5
2.66667 0.333333 0.5
2.22222 0.5 0.333333
2.22222 0.333333 0.5
2.66667 0.333333 0.333333
3.11111 0 0.333333
3.55556 0 0.166667
3.55556 0 0
3.11111 0 0
3.55556 0.166667 0
3.11111 0.333333 0
3.11111 0.166667 0.166667
3.11111 0.166667 0
3.11111 0 0.166667
4 0.166667 0
4 0.333333 0
3.55556 0.5 0
3.11111 0.5 0
3.55556 0.333333 0.166667
3.11111 0.166667 0.333333
3.55556 0.166667 0.166667
3.11111 0.333333 0.166667
3.55556 0.333333 0
3.11111 0.5 0.333333
3.55556 0.5 0.166667
3.11111 0.5 0.166667
3.11111 0.333333 0.333333
4 0 0.166667
4 0 0.333333
4 0.166667 0.333333
4 0.333333 0.166667
3.55556 0 0.5
3.11111 0 0.5
3.55556 0 0.333333
3.55556 0.166667 0.333333
4 0.166667 0.166667
3.55556 0.166667 0.5
3.11111 0.333333 0.5
3.11111 0.166667 0.5
3.55556 0.333333 0.333333
4 0.5 0.166667
4 0.5 0.333333
3.11111 0.5 0.5
3.55556 0.5 0.5
4 0.166667 0.5
4 0.333333 0.5
3.55556 0.5 0.333333
3.55556 0.333333 0.5
4 0.333333 0.333333
0 0.666667 0
0 0.833333 0
0 0.666667 0.333333
0 0.833333 0.166667
0.888889 0.666667 0
0.444444 0.833333 0
0 0.666667 0.166667
0.444444 0.666667 0.166667
0.444444 0.666667 0
1.33333 0.666667 0
1.33333 0.833333 0
0.888889 1 0
0.444444 1 0
0.888889 0.833333 0.166667
0.444444 0.666667 0.333333
0.888889 0.666667 0.166667
0.444444 0.833333 0.166667
0.888889 0.833333 0
0 0.666667 0.5
0 0.833333 0.5
0.444444 1 0.333333
0.888889 1 0.166667
0 1 0.333333
0 1 0.166667
0 0.833333 0.333333
0.444444 1 0.166667
0.444444 0.833333 0.333333
1.33333 0.666667 0.333333
1.33333 0.833333 0.166667
0.888889 0.666667 0.333333
1.33333 0.666667 0.166667
0.888889 0.666667 0.5
0.444444 0.833333 0.5
0.444444 0.666667 0.5
0.888889 0.833333 0.333333
1.33333 1 0.166667
1.33333 1 0.333333
0.444444 1 0.5
0.888889 1 0.5
1.33333 0.666667 0.5
1.33333 0.833333 0.5
0.888889 1 0.333333
0.888889 0.833333 0.5
1.33333 0.833333 0.333333
2.22222 0.666667 0
1.77778 0.833333 0
1.77778 0.666667 0.166667
1.77778 0.666667 0
2.66667 0.666667 0
2.66667 0.833333 0
2.22222 1 0
1.77778 1 0
2.22222 0.833333 0.166667
1.77778 0.666667 0.333333
2.22222 0.666667 0.166667
1.77778 0.833333 0.166667
2.22222 0.833333 0
1.77778 1 0.333333
2.22222 1 0.166667
1.77778 1 0.166667
1.77778 0.833333 0.333333
2.66667 0.666667 0.333333
2.66667 0.833333 0.166667
2.22222 0.666667 0.333333
2.66667 0.666667 0.166667
2.22222 0.666667 0.5
1.77778 0.833333 0.5
1.77778 0.666667 0.5
2.22222 0.833333 0.333333
2.66667 1 0.166667
2.66667 1 0.333333
1.77778 1 0.5
2.22222 1 0.5
2.66667 0.666667 0.5
2.66667 0.833333 0.5
2.22222 1 0.333333
2.22222 0.833333 0.5
2.66667 0.833333 0.333333
3.55556 0.666667 0
3.11111 0.833333 0
3.11111 0.666667 0.166667
3.11111 0.666667 0
4 0.666667 0
4 0.833333 0
3.55556 1 0
3.11111 1 0
3.55556 0.833333 0.166667
3.11111 0.666667 0.333333
3.55556 0.666667 0.166667
3.11111 0.833333 0.166667
3.55556 0.833333 0
3.11111 1 0.333333
3.55556 1 0.166667
3.11111 1 0.166667
3.11111 0.833333 0.333333
4 0.666667 0.333333
4 0.833333 0.166667
3.55556 0.666667 0.333333
4 0.666667 0.166667
3.55556 0.666667 0.5
3.11111 0.833333 0.5
3.11111 0.666667 0.5
3.55556 0.833333 0.333333
4 1 0.166667
4 1 0.333333
3.11111 1 0.5
3.55556 1 0.5
4 0.666667 0.5
4 0.833333 0.5
3.55556 1 0.333333
3.55556 0.833333 0.5
4 0.833333 0.333333
0 0 0.666667
0 0 0.833333
0.444444 0 0.833333
0.888889 0 0.666667
0 0.166667 0.833333
0 0.333333 0.666667
0 0.166667 0.666667
0.444444 0.166667 0.666667
0.444444 0 0.666667
0.888889 0.333333 0.666667
0.444444 0.166667 0.833333
0.888889 0.166667 0.666667
0.444444 0.333333 0.666667
0 0.166667 1
0 0.333333 1
0.444444 0.5 0.833333
0.888889 0.5 0.666667
0 0.5 0.833333
0 0.5 0.666667
0 0.333333 0.833333
0.444444 0.5 0.666667
0.444444 0.333333 0.833333
1.33333 0 0.666667
1.33333 0 0.833333
1.33333 0.166667 0.833333
1.33333 0.333333 0.666667
0.888889 0 1
0.444444 0 1
0.888889 0 0.833333
0.888889 0.166667 0.833333
1.33333 0.166667 0.666667
0.888889 0.166667 1
0.444444 0.333333 1
0.444444 0.166667 1
0.888889 0.333333 0.833333
1.33333 0.5 0.666667
1.33333 0.5 0.833333
0.444444 0.5 1
0.888889 0.5 1
1.33333 0.166667 1
1.33333 0.333333 1
0.888889 0.5 0.833333
0.888889 0.333333 1
1.33333 0.333333 0.833333
1.77778 0 0.833333
2.22222 0 0.666667
1.77778 0.166667 0.666667
1.77778 0 0.666667
2.22222 0.333333 0.666667
1.77778 0.166667 0.833333
2.22222 0.166667 0.666667
1.77778 0.333333 0.666667
1.77778 0.5 0.833333
2.22222 0.5 0.666667
1.77778 0.5 0.666667
1.77778 0.333333 0.833333
2.66667 0 0.666667
2.66667 0 0.833333
2.66667 0.166667 0.833333
2.66667 0.333333 0.666667
2.22222 0 1
1.77778 0 1
2.22222 0 0.833333
2.22222 0.166667 0.833333
2.66667 0.166667 0.666667
2.22222 0.166667 1
1.77778 0.333333 1
1.77778 0.166667 1
2.22222 0.333333 0.833333
2.66667 0.5 0.666667
2.66667 0.5 0.833333
1.77778 0.5 1
2.22222 0.5 1
2.66667 0.166667 1
2.66667 0.333333 1
2.22222 0.5 0.833333
2.22222 0.333333 1
2.66667 0.333333 0.833333
3.11111 0 0.833333
3.55556 0 0.666667
3.11111 0.166667 0.666667
3.11111 0 0.666667
3.55556 0.333333 0.666667
3.11111 0.166667 0.833333
3.55556 0.166667 0.666667
3.11111 0.333333 0.666667
3.11111 0.5 0.833333
3.55556 0.5 0.666667
3.11111 0.5 0.666667
3.11111 0.333333 0.833333
4 0 0.666667
4 0 0.833333
4 0.166667 0.833333
4 0.333333 0.666667
3.55556 0 1
3.11111 0 1
3.55556 0 0.833333
3.55556 0.166667 0.833333
4 0.166667 0.666667
3.55556 0.166667 1
3.11111 0.333333 1
3.11111 0.166667 1
3.55556 0.333333 0.833333
4 0.5 0.666667
4 0.5 0.833333
3.11111 0.5 1
3.55556 0.5 1
4 0.166667 1
4 0.333333 1
3.55556 0.5 0.833333
3.55556 0.333333 1
4 0.333333 0.833333
0 0.666667 0.833333
0 0.833333 0.666667
0 0.666667 0.666667
0.444444 0.666667 0.666667
0.888889 0.833333 0.666667
0.444444 0.666667 0.833333
0.888889 0.666667 0.666667
0.444444 0.833333 0.666667
0 0.666667 1
0 0.833333 1
0.444444 1 0.833333
0.888889 1 0.666667
0 1 0.833333
0 1 0.666667
0 0.833333 0.833333
0.444444 1 0.666667
0.444444 0.833333 0.833333
1.33333 0.666667 0.833333
1.33333 0.833333 0.666667
0.888889 0.666667 0.833333
1.33333 0.666667 0.666667
0.888889 0.666667 1
0.444444 0.833333 1
0.444444 0.666667 1
0.888889 0.833333 0.833333
1.33333 1 0.666667
1.33333 1 0.833333
0.444444 1 1
0.888889 1 1
1.33333 0.666667 1
1.33333 0.833333 1
0.888889 1 0.833333
0.888889 0.833333 1
1.33333 0.833333 0.833333
1.77778 0.666667 0.666667
2.22222 0.833333 0.666667
1.77778 0.666667 0.833333
2.22222 0.666667 0.666667
1.77778 0.833333 0.666667
1.77778 1 0.833333
2.22222 1 0.666667
1.77778 1 0.666667
1.77778 0.833333 0.833333
2.66667 0.666667 0.833333
2.66667 0.833333 0.666667
2.22222 0.666667 0.833333
2.66667 0.666667 0.666667
2.22222 0.666667 1
1.77778 0.833333 1
1.77778 0.666667 1
2.22222 0.833333 0.833333
2.66667 1 0.666667
2.66667 1 0.833333
1.77778 1 1
2.22222 1 1
2.66667 0.666667 1
2.66667 0.833333 1
2.22222 1 0.833333
2.22222 0.833333 1
2.66667 0.833333 0.833333
3.11111 0.666667 0.666667
3.55556 0.833333 0.666667
3.11111 0.666667 0.833333
3.55556 0.666667 0.666667
3.11111 0.833333 0.666667
3.11111 1 0.833333
3.55556 1 0.666667
3.11111 1 0.666667
3.11111 0.833333 0.833333
4 0.666667 0.833333
4 0.833333 0.666667
3.55556 0.666667 0.833333
4 0.666667 0.666667
3.55556 0.666667 1
3.11111 0.833333 1
3.11111 0.666667 1
3.55556 0.833333 0.833333
4 1 0.666667
4 1 0.833333
3.11111 1 1
3.55556 1 1
4 0.666667 1
4 0.833333 1
3.55556 1 0.833333
3.55556 0.833333 1
4 0.833333 0.833333

CELLS 73 1440
OFFSETS vtktypeint64
0 20 40 60 80 100 120 140 160 180 200 220 240 260 280 300 320 340 360 380 400 420 440 460 480 500 520 540 560 580 600 620 640 660 680 700 720 740 760 780 800 820 840 860 880 900 920 940 960 980 1000 1020 1040 1060 1080 1100 1120 1140 1160 1180 1200 1220 1240 1260 1280 1300 1320 1340 1360 1380 1400 1420 1440 
CONNECTIVITY vtktypeint64
0 12 1 4 36 37 38 39 40 41 42 43 44 45 46 47 48 49 50 51 
4 1 5 12 47 46 52 53 54 55 45 44 39 38 56 57 49 58 59 60 
12 16 5 4 61 62 63 64 56 57 44 45 65 66 54 55 67 68 59 69 
1 13 5 12 70 71 72 73 53 52 39 38 74 75 56 57 76 77 58 78 
5 13 16 12 73 72 79 80 63 64 56 57 74 75 62 61 77 81 69 82 
5 16 13 17 64 63 80 79 72 73 83 84 85 86 87 88 89 90 91 82 
1 13 2 5 70 71 92 93 94 95 52 53 72 73 96 97 78 98 99 100 
5 2 6 13 97 96 101 102 103 104 73 72 93 92 105 106 98 107 108 109 
13 17 6 5 87 88 110 111 105 106 72 73 84 83 103 104 91 112 108 113 
2 14 6 13 114 115 116 117 102 101 93 92 118 119 105 106 120 121 107 122 
6 14 17 13 117 116 123 124 110 111 105 106 118 119 88 87 121 125 113 126 
6 17 14 18 111 110 124 123 116 117 127 128 129 130 131 132 133 134 135 126 
2 14 3 6 114 115 136 137 138 139 101 102 116 117 140 141 122 142 143 144 
6 3 7 14 141 140 145 146 147 148 117 116 137 136 149 150 142 151 152 153 
14 18 7 6 131 132 154 155 149 150 116 117 128 127 147 148 135 156 152 157 
3 15 7 14 158 159 160 161 146 145 137 136 162 163 149 150 164 165 151 166 
7 15 18 14 161 160 167 168 154 155 149 150 162 163 132 131 165 169 157 170 
7 18 15 19 155 154 168 167 160 161 171 172 173 174 175 176 177 178 179 170 
4 16 5 8 66 65 63 64 54 55 180 181 182 183 184 185 186 187 188 68 
8 5 9 16 185 184 189 190 191 192 183 182 64 63 193 194 187 195 196 197 
16 20 9 8 198 199 200 201 193 194 182 183 202 203 191 192 204 205 196 206 
5 17 9 16 83 84 207 208 190 189 64 63 86 85 193 194 89 209 195 210 
9 17 20 16 208 207 211 212 200 201 193 194 86 85 199 198 209 213 206 214 
9 20 17 21 201 200 212 211 207 208 215 216 217 218 219 220 221 222 223 214 
5 17 6 9 83 84 110 111 103 104 189 190 207 208 224 225 210 226 227 112 
9 6 10 17 225 224 228 229 230 231 208 207 111 110 232 233 226 234 235 236 
17 21 10 9 219 220 237 238 232 233 207 208 216 215 230 231 223 239 235 240 
6 18 10 17 127 128 241 242 229 228 111 110 130 129 232 233 133 243 234 244 
10 18 21 17 242 241 245 246 237 238 232 233 130 129 220 219 243 247 240 248 
10 21 18 22 238 237 246 245 241 242 249 250 251 252 253 254 255 256 257 248 
6 18 7 10 127 128 154 155 147 148 228 229 241 242 258 259 244 260 261 156 
10 7 11 18 259 258 262 263 264 265 242 241 155 154 266 267 260 268 269 270 
18 22 11 10 253 254 271 272 266 267 241 242 250 249 264 265 257 273 269 274 
7 19 11 18 171 172 275 276 263 262 155 154 174 173 266 267 177 277 268 278 
11 19 22 18 276 275 279 280 271 272 266 267 174 173 254 253 277 281 274 282 
11 22 19 23 272 271 280 279 275 276 283 284 285 286 287 288 289 290 291 282 
12 24 13 16 292 293 294 295 74 75 61 62 296 297 79 80 298 299 81 300 
16 13 17 24 80 79 87 88 86 85 297 296 295 294 301 302 299 303 304 90 
24 28 17 16 305 306 307 308 301 302 296 297 309 310 86 85 311 312 304 313 
13 25 17 24 314 315 316 317 88 87 295 294 318 319 301 302 320 321 303 322 
17 25 28 24 317 316 323 324 307 308 301 302 318 319 306 305 321 325 313 326 
17 28 25 29 308 307 324 323 316 317 327 328 329 330 331 332 333 334 335 326 
13 25 14 17 314 315 336 337 118 119 87 88 316 317 123 124 322 338 125 339 
17 14 18 25 124 123 131 132 130 129 317 316 337 336 340 341 338 342 343 134 
25 29 18 17 331 332 344 345 340 341 316 317 328 327 130 129 335 346 343 347 
14 26 18 25 348 349 350 351 132 131 337 336 352 353 340 341 354 355 342 356 
18 26 29 25 351 350 357 358 344 345 340 341 352 353 332 331 355 359 347 360 
18 29 26 30 345 344 358 357 350 351 361 362 363 364 365 366 367 368 369 360 
14 26 15 18 348 349 370 371 162 163 131 132 350 351 167 168 356 372 169 373 
18 15 19 26 168 167 175 176 174 173 351 350 371 370 374 375 372 376 377 178 
26 30 19 18 365 366 378 379 374 375 350 351 362 361 174 173 369 380 377 381 
15 27 19 26 382 383 384 385 176 175 371 370 386 387 374 375 388 389 376 390 
19 27 30 26 385 384 391 392 378 379 374 375 386 387 366 365 389 393 381 394 
19 30 27 31 379 378 392 391 384 385 395 396 397 398 399 400 401 402 403 394 
16 28 17 20 310 309 307 308 86 85 198 199 404 405 211 212 406 407 213 312 
20 17 21 28 212 211 219 220 218 217 405 404 308 307 408 409 407 410 411 222 
28 32 21 20 412 413 414 415 408 409 404 405 416 417 218 217 418 419 411 420 
17 29 21 28 327 328 421 422 220 219 308 307 330 329 408 409 333 423 410 424 
21 29 32 28 422 421 425 426 414 415 408 409 330 329 413 412 423 427 420 428 
21 32 29 33 415 414 426 425 421 422 429 430 431 432 433 434 435 436 437 428 
17 29 18 21 327 328 344 345 130 129 219 220 421 422 245 246 424 438 247 346 
21 18 22 29 246 245 253 254 252 251 422 421 345 344 439 440 438 441 442 256 
29 33 22 21 433 434 443 444 439 440 421 422 430 429 252 251 437 445 442 446 
18 30 22 29 361 362 447 448 254 253 345 344 364 363 439 440 367 449 441 450 
22 30 33 29 448 447 451 452 443 444 439 440 364 363 434 433 449 453 446 454 
22 33 30 34 444 443 452 451 447 448 455 456 457 458 459 460 461 462 463 454 
18 30 19 22 361 362 378 379 174 173 253 254 447 448 279 280 450 464 281 380 
22 19 23 30 280 279 287 288 286 285 448 447 379 378 465 466 464 467 468 290 
30 34 23 22 459 460 469 470 465 466 447 448 456 455 286 285 463 471 468 472 
19 31 23 30 395 396 473 474 288 287 379 378 398 397 465 466 401 475 467 476 
23 31 34 30 474 473 477 478 469 470 465 466 398 397 460 459 475 479 472 480 
23 34 31 35 470 469 478 477 473 474 481 482 483 484 485 486 487 488 489 480 
CELL_TYPES 72
71 71 71 71 71 71 71 71 71 71 71 71 71 71 71 71 71 71 71 71 71 71 71 71 71 71 71 71 71 71 71 71 71 71 71 71 71 71 71 71 71 71 71 71 71 71 71 71 71 71 71 71 71 71 71 71 71 71 71 71 71 71 71 71 71 71 71 71 71 71 71 71 

POINT_DATA 490
SCALARS weights float 1
LOOKUP_TABLE default
16.6667 66.6667 66.6667 50 66.6667 200 200 133.333 50 133.333 133.333 83.3333 100 200 200 100 200 400 400 200 100 200 200 100 83.3333 133.333 133.333 50 133.333 200 200 66.6666 50 66.6666 66.6666 16.6666 16.6667 16.6667 50 50 16.6667 16.6667 16.6667 16.6667 50 50 33.3333 33.3333 16.6667 33.3333 16.6667 16.6667 50 50 50 50 66.6667 66.6667 33.3333 33.3333 16.6667 50 50 100 100 33.3333 33.3333 16.6667 33.3333 33.3333 33.3333 33.3333 100 100 50 50 16.6667 33.3333 33.3333 66.6667 66.6667 33.3333 33.3333 66.6667 66.6667 100 100 100 100 33.3333 33.3333 33.3333 50 50 16.6667 16.6667 33.3333 33.3333 33.3333 16.6667 16.6667 50 50 50 50 66.6667 66.6667 33.3333 33.3333 16.6667 100 100 33.3333 33.3333 33.3333 33.3333 100 100 50 50 16.6667 33.3333 33.3333 66.6667 66.6667 33.3333 33.3333 66.6667 66.6667 100 100 100 100 33.3333 33.3333 33.3333 50 50 16.6667 16.6667 33.3333 33.3333 33.3333 16.6667 16.6667 33.3333 33.3333 50 50 66.6667 66.6667 33.3333 33.3333 16.6667 100 100 33.3333 33.3333 16.6667 16.6667 50 50 50 50 16.6667 33.3333 16.6667 66.6667 66.6667 33.3333 33.3333 33.3333 33.3333 100 100 50 50 33.3333 33.3333 16.6666 16.6667 16.6667 50 50 33.3333 33.3333 16.6667 33.3333 16.6667 50 50 33.3333 33.3333 66.6667 66.6667 33.3333 33.3333 16.6667 50 50 50 50 16.6667 16.6667 16.6667 16.6667 33.3333 100 100 33.3333 33.3333 66.6667 66.6667 33.3333 33.3333 33.3333 33.3333 50 50 100 100 16.6667 33.3333 33.3333 33.3333 33.3333 33.3333 16.6667 50 50 33.3333 33.3333 66.6667 66.6667 33.3333 33.3333 16.6667 50 50 16.6667 33.3333 100 100 33.3333 33.3333 66.6667 66.6667 33.3333 33.3333 33.3333 33.3333 50 50 100 100 16.6667 33.3333 33.3333 33.3333 33.3333 33.3333 16.6667 33.3333 33.3333 33.3333 33.3333 66.6667 66.6667 33.3333 33.3333 16.6667 50 50 16.6667 33.3334 50 50 33.3334 16.6667 66.6666 66.6666 33.3333 33.3333 16.6666 16.6666 50 50 50 50 16.6666 33.3333 16.6666 16.6667 16.6667 50 50 50 50 16.6667 33.3333 16.6667 66.6667 66.6667 33.3333 33.3333 33.3333 33.3333 100 100 33.3333 33.3333 16.6667 33.3333 33.3333 33.3333 33.3333 100 100 33.3333 33.3333 16.6667 33.3333 33.3333 33.3333 33.3333 16.6667 33.3333 66.6667 66.6667 50 50 50 50 33.3333 16.6667 33.3333 50 50 33.3333 16.6667 66.6667 66.6667 33.3333 33.3333 100 100 33.3333 33.3333 33.3333 33.3333 100 100 33.3333 33.3333 16.6667 33.3333 33.3333 33.3333 33.3333 16.6667 33.3333 66.6667 66.6667 50 50 50 50 33.3333 16.6667 33.3333 50 50 33.3333 16.6667 66.6667 66.6667 33.3333 33.3333 100 100 33.3333 33.3333 16.6667 16.6667 50 50 33.3333 33.3333 16.6667 33.3333 16.6667 33.3333 33.3333 16.6667 33.3333 33.3333 33.3333 50 50 16.6666 16.6666 33.3333 16.6666 16.6666 50 50 16.6667 33.3333 66.6667 66.6667 33.3333 33.3333 33.3333 33.3333 50 50 16.6667 16.6667 16.6667 16.6667 33.3333 100 100 33.3333 33.3333 33.3333 33.3333 16.6667 33.3333 33.3333 33.3333 16.6667 16.6667 50 50 16.6667 16.6667 33.3333 33.3333 66.6667 66.6667 33.3333 33.3333 50 50 16.6667 33.3333 100 100 33.3333 33.3333 33.3333 33.3333 16.6667 33.3333 33.3333 33.3333 16.6667 16.6667 50 50 16.6667 16.6667 33.3333 33.3333 66.6667 66.6667 33.3333 33.3333 50 50 16.6667 33.3333 50 50 33.3334 16.6667 33.3333 33.3333 16.6667 33.3333 16.6666 16.6666 16.6666 16.6666 16.6666 16.6666 16.6666 16.6666 16.6666 
VECTORS u float