# vtk DataFile Version 5.1
vtk output
ASCII

DATASET UNSTRUCTURED_GRID
POINTS 2673 float
0 0 0
0.125 0 0
0.25 0 0
0.375 0 0
0.5 0 0
0.625 0 0
0.75 0 0
0.875 0 0
1 0 0
1.125 0 0
1.25 0 0
1.375 0 0
1.5 0 0
1.625 0 0
1.75 0 0
1.875 0 0
2 0 0
2.125 0 0
2.25 0 0
2.375 0 0
2.5 0 0
2.625 0 0
2.75 0 0
2.875 0 0
3 0 0
3.125 0 0
3.25 0 0
3.375 0 0
3.5 0 0
3.625 0 0
3.75 0 0
3.875 0 0
4 0 0
0 0.125 0
0.125 0.125 0
0.25 0.125 0
0.375 0.125 0
0.5 0.125 0
0.625 0.125 0
0.75 0.125 0
0.875 0.125 0
1 0.125 0
1.125 0.125 0
1.25 0.125 0
1.375 0.125 0
1.5 0.125 0
1.625 0.125 0
1.75 0.125 0
1.875 0.125 0
2 0.125 0
2.125 0.125 0
2.25 0.125 0
2.375 0.125 0
2.5 0.125 0
2.625 0.125 0
2.75 0.125 0
2.875 0.125 0
3 0.125 0
3.125 0.125 0
3.25 0.125 0
3.375 0.125 0
3.5 0.125 0
3.625 0.125 0
3.75 0.125 0
3.875 0.125 0
4 0.125 0
0 0.25 0
0.125 0.25 0
0.25 0.25 0
0.375 0.25 0
0.5 0.25 0
0.625 0.25 0
0.75 0.25 0
0.875 0.25 0
1 0.25 0
1.125 0.25 0
1.25 0.25 0
1.375 0.25 0
1.5 0.25 0
1.625 0.25 0
1.75 0.25 0
1.875 0.25 0
2 0.25 0
2.125 0.25 0
2.25 0.25 0
2.375 0.25 0
2.5 0.25 0
2.625 0.25 0
2.75 0.25 0
2.875 0.25 0
3 0.25 0
3.125 0.25 0
3.25 0.25 0
3.375 0.25 0
3.5 0.25 0
3.625 0.25 0
3.75 0.25 0
3.875 0.25 0
4 0.25 0
0 0.375 0
0.125 0.375 0
0.25 0.375 0
0.375 0.375 0
0.5 0.375 0
0.625 0.375 0
0.75 0.375 0
0.875 0.375 0
1 0.375 0
1.125 0.375 0
1.25 0.375 0
1.375 0.375 0
1.5 0.375 0
1.625 0.375 0
1.75 0.375 0
1.875 0.375 0
2 0.375 0
2.125 0.375 0
2.25 0.375 0
2.375 0.375 0
2.5 0.375 0
2.625 0.375 0
2.75 0.375 0
2.875 0.375 0
3 0.375 0
3.125 0.375 0
3.25 0.375 0
3.375 0.375 0
3.5 0.375 0
3.625 0.375 0
3.75 0.375 0
3.875 0.375 0
4 0.375 0
0 0.5 0
0.125 0.5 0
0.25 0.5 0
0.375 0.5 0
0.5 0.5 0
0.625 0.5 0
0.75 0.5 0
0.875 0.5 0
1 0.5 0
1.125 0.5 0
1.25 0.5 0
1.375 0.5 0
1.5 0.5 0
1.625 0.5 0
1.75 0.5 0
1.875 0.5 0
2 0.5 0
2.125 0.5 0
2.25 0.5 0
2.375 0.5 0
2.5 0.5 0
2.625 0.5 0
2.75 0.5 0
2.875 0.5 0
3 0.5 0
3.125 0.5 0
3.25 0.5 0
3.375 0.5 0
3.5 0.5 0
3.625 0.5 0
3.75 0.5 0
3.875 0.5 0
4 0.5 0
0 0.625 0
0.125 0.625 0
0.25 0.625 0
0.375 0.625 0
0.5 0.625 0
0.625 0.625 0
0.75 0.625 0
0.875 0.625 0
1 0.625 0
1.125 0.625 0
1.25 0.625 0
1.375 0.625 0
1.5 0.625 0
1.625 0.625 0
1.75 0.625 0
1.875 0.625 0
2 0.625 0
2.125 0.625 0
2.25 0.625 0
2.375 0.625 0
2.5 0.625 0
2.625 0.625 0
2.75 0.625 0
2.875 0.625 0
3 0.625 0
3.125 0.625 0
3.25 0.625 0
3.375 0.625 0
3.5 0.625 0
3.625 0.625 0
3.75 0.625 0
3.875 0.625 0
4 0.625 0
0 0.75 0
0.125 0.75 0
0.25 0.75 0
0.375 0.75 0
0.5 0.75 0
0.625 0.75 0
0.75 0.75 0
0.875 0.75 0
1 0.75 0
1.125 0.75 0
1.25 0.75 0
1.375 0.75 0
1.5 0.75 0
1.625 0.75 0
1.75 0.75 0
1.875 0.75 0
2 0.75 0
2.125 0.75 0
2.25 0.75 0
2.375 0.75 0
2.5 0.75 0
2.625 0.75 0
2.75 0.75 0
2.875 0.75 0
3 0.75 0
3.125 0.75 0
3.25 0.75 0
3.375 0.75 0
3.5 0.75 0
3.625 0.75 0
3.75 0.75 0
3.875 0.75 0
4 0.75 0
0 0.875 0
0.125 0.875 0
0.25 0.875 0
0.375 0.875 0
0.5 0.875 0
0.625 0.875 0
0.75 0.875 0
0.875 0.875 0
1 0.875 0
1.125 0.875 0
1.25 0.875 0
1.375 0.875 0
1.5 0.875 0
1.625 0.875 0
1.75 0.875 0
1.875 0.875 0
2 0.875 0
2.125 0.875 0
2.25 0.875 0
2.375 0.875 0
2.5 0.875 0
2.625 0.875 0
2.75 0.875 0
2.875 0.875 0
3 0.875 0
3.125 0.875 0
3.25 0.875 0
3.375 0.875 0
3.5 0.875 0
3.625 0.875 0
3.75 0.875 0
3.875 0.875 0
4 0.875 0
0 1 0
0.125 1 0
0.25 1 0
0.375 1 0
0.5 1 0
0.625 1 0
0.75 1 0
0.875 1 0
1 1 0
1.125 1 0
1.25 1 0
1.375 1 0
1.5 1 0
1.625 1 0
1.75 1 0
1.875 1 0
2 1 0
2.125 1 0
2.25 1 0
2.375 1 0
2.5 1 0
2.625 1 0
2.75 1 0
2.875 1 0
3 1 0
3.125 1 0
3.25 1 0
3.375 1 0
3.5 1 0
3.625 1 0
3.75 1 0
3.875 1 0
4 1 0
0 0 0.125
0.125 0 0.125
0.25 0 0.125
0.375 0 0.125
0.5 0 0.125
0.625 0 0.125
0.75 0 0.125
0.875 0 0.125
1 0 0.125
1.125 0 0.125
1.25 0 0.125
1.375 0 0.125
1.5 0 0.125
1.625 0 0.125
1.75 0 0.125
1.875 0 0.125
2 0 0.125
2.125 0 0.125
2.25 0 0.125
2.375 0 0.125
2.5 0 0.125
2.625 0 0.125
2.75 0 0.125
2.875 0 0.125
3 0 0.125
3.125 0 0.125
3.25 0 0.125
3.375 0 0.125
3.5 0 0.125
3.625 0 0.125
3.75 0 0.125
3.875 0 0.125
4 0 0.125
0 0.125 0.125
0.125 0.125 0.125
0.25 0.125 0.125
0.375 0.125 0.125
0.5 0.125 0.125
0.625 0.125 0.125
0.75 0.125 0.125
0.875 0.125 0.125
1 0.125 0.125
1.125 0.125 0.125
1.25 0.125 0.125
1.375 0.125 0.125
1.5 0.125 0.125
1.625 0.125 0.125
1.75 0.125 0.125
1.875 0.125 0.125
2 0.125 0.125
2.125 0.125 0.125
2.25 0.125 0.125
2.375 0.125 0.125
2.5 0.125 0.125
2.625 0.125 0.125
2.75 0.125 0.125
2.875 0.125 0.125
3 0.125 0.125
3.125 0.125 0.125
3.25 0.125 0.125
3.375 0.125 0.125
3.5 0.125 0.125
3.625 0.125 0.125
3.75 0.125 0.125
3.875 0.125 0.125
4 0.125 0.125
0 0.25 0.125
0.125 0.25 0.125
0.25 0.25 0.125
0.375 0.25 0.125
0.5 0.25 0.125
0.625 0.25 0.125
0.75 0.25 0.125
0.875 0.25 0.125
1 0.25 0.125
1.125 0.25 0.125
1.25 0.25 0.125
1.375 0.25 0.125
1.5 0.25 0.125
1.625 0.25 0.125
1.75 0.25 0.125
1.875 0.25 0.125
2 0.25 0.125
2.125 0.25 0.125
2.25 0.25 0.125
2.375 0.25 0.125
2.5 0.25 0.125
2.625 0.25 0.125
2.75 0.25 0.125
2.875 0.25 0.125
3 0.25 0.125
3.125 0.25 0.125
3.25 0.25 0.125
3.375 0.25 0.125
3.5 0.25 0.125
3.625 0.25 0.125
3.75 0.25 0.125
3.875 0.25 0.125
4 0.25 0.125
0 0.375 0.125
0.125 0.375 0.125
0.25 0.375 0.125
0.375 0.375 0.125
0.5 0.375 0.125
0.625 0.375 0.125
0.75 0.375 0.125
0.875 0.375 0.125
1 0.375 0.125
1.125 0.375 0.125
1.25 0.375 0.125
1.375 0.375 0.125
1.5 0.375 0.125
1.625 0.375 0.125
1.75 0.375 0.125
1.875 0.375 0.125
2 0.375 0.125
2.125 0.375 0.125
2.25 0.375 0.125
2.375 0.375 0.125
2.5 0.375 0.125
2.625 0.375 0.125
2.75 0.375 0.125
2.875 0.375 0.125
3 0.375 0.125
3.125 0.375 0.125
3.25 0.375 0.125
3.375 0.375 0.125
3.5 0.375 0.125
3.625 0.375 0.125
3.75 0.375 0.125
3.875 0.375 0.125
4 0.375 0.125
0 0.5 0.125
0.125 0.5 0.125
0.25 0.5 0.125
0.375 0.5 0.125
0.5 0.5 0.125
0.625 0.5 0.125
0.75 0.5 0.125
0.875 0.5 0.125
1 0.5 0.125
1.125 0.5 0.125
1.25 0.5 0.125
1.375 0.5 0.125
1.5 0.5 0.125
1.625 0.5 0.125
1.75 0.5 0.125
1.875 0.5 0.125
2 0.5 0.125
2.125 0.5 0.125
2.25 0.5 0.125
2.375 0.5 0.125
2.5 0.5 0.125
2.625 0.5 0.125
2.75 0.5 0.125
2.875 0.5 0.125
3 0.5 0.125
3.125 0.5 0.125
3.25 0.5 0.125
3.375 0.5 0.125
3.5 0.5 0.125
3.625 0.5 0.125
3.75 0.5 0.125
3.875 0.5 0.125
4 0.5 0.125
0 0.625 0.125
0.125 0.625 0.125
0.25 0.625 0.125
0.375 0.625 0.125
0.5 0.625 0.125
0.625 0.625 0.125
0.75 0.625 0.125
0.875 0.625 0.125
1 0.625 0.125
1.125 0.625 0.125
1.25 0.625 0.125
1.375 0.625 0.125
1.5 0.625 0.125
1.625 0.625 0.125
1.75 0.625 0.125
1.875 0.625 0.125
2 0.625 0.125
2.125 0.625 0.125
2.25 0.625 0.125
2.375 0.625 0.125
2.5 0.625 0.125
2.625 0.625 0.125
2.75 0.625 0.125
2.875 0.625 0.125
3 0.625 0.125
3.125 0.625 0.125
3.25 0.625 0.125
3.375 0.625 0.125
3.5 0.625 0.125
3.625 0.625 0.125
3.75 0.625 0.125
3.875 0.625 0.125
4 0.625 0.125
0 0.75 0.125
0.125 0.75 0.125
0.25 0.75 0.125
0.375 0.75 0.125
0.5 0.75 0.125
0.625 0.75 0.125
0.75 0.75 0.125
0.875 0.75 0.125
1 0.75 0.125
1.125 0.75 0.125
1.25 0.75 0.125
1.375 0.75 0.125
1.5 0.75 0.125
1.625 0.75 0.125
1.75 0.75 0.125
1.875 0.75 0.125
2 0.75 0.125
2.125 0.75 0.125
2.25 0.75 0.125
2.375 0.75 0.125
2.5 0.75 0.125
2.625 0.75 0.125
2.75 0.75 0.125
2.875 0.75 0.125
3 0.75 0.125
3.125 0.75 0.125
3.25 0.75 0.125
3.375 0.75 0.125
3.5 0.75 0.125
3.625 0.75 0.125
3.75 0.75 0.125
3.875 0.75 0.125
4 0.75 0.125
0 0.875 0.125
0.125 0.875 0.125
0.25 0.875 0.125
0.375 0.875 0.125
0.5 0.875 0.125
0.625 0.875 0.125
0.75 0.875 0.125
0.875 0.875 0.125
1 0.875 0.125
1.125 0.875 0.125
1.25 0.875 0.125
1.375 0.875 0.125
1.5 0.875 0.125
1.625 0.875 0.125
1.75 0.875 0.125
1.875 0.875 0.125
2 0.875 0.125
2.125 0.875 0.125
2.25 0.875 0.125
2.375 0.875 0.125
2.5 0.875 0.125
2.625 0.875 0.125
2.75 0.875 0.125
2.875 0.875 0.125
3 0.875 0.125
3.125 0.875 0.125
3.25 0.875 0.125
3.375 0.875 0.125
3.5 0.875 0.125
3.625 0.875 0.125
3.75 0.875 0.125
3.875 0.875 0.125
4 0.875 0.125
0 1 0.125
0.125 1 0.125
0.25 1 0.125
0.375 1 0.125
0.5 1 0.125
0.625 1 0.125
0.75 1 0.125
0.875 1 0.125
1 1 0.125
1.125 1 0.125
1.25 1 0.125
1.375 1 0.125
1.5 1 0.125
1.625 1 0.125
1.75 1 0.125
1.875 1 0.125
2 1 0.125
2.125 1 0.125
2.25 1 0.125
2.375 1 0.125
2.5 1 0.125
2.625 1 0.125
2.75 1 0.125
2.875 1 0.125
3 1 0.125
3.125 1 0.125
3.25 1 0.125
3.375 1 0.125
3.5 1 0.125
3.625 1 0.125
3.75 1 0.125
3.875 1 0.125
4 1 0.125
0 0 0.25
0.125 0 0.25
0.25 0 0.25
0.375 0 0.25
0.5 0 0.25
0.625 0 0.25
0.75 0 0.25
0.875 0 0.25
1 0 0.25
1.125 0 0.25
1.25 0 0.25
1.375 0 0.25
1.5 0 0.25
1.625 0 0.25
1.75 0 0.25
1.875 0 0.25
2 0 0.25
2.125 0 0.25
2.25 0 0.25
2.375 0 0.25
2.5 0 0.25
2.625 0 0.25
2.75 0 0.25
2.875 0 0.25
3 0 0.25
3.125 0 0.25
3.25 0 0.25
3.375 0 0.25
3.5 0 0.25
3.625 0 0.25
3.75 0 0.25
3.875 0 0.25
4 0 0.25
0 0.125 0.25
0.125 0.125 0.25
0.25 0.125 0.25
0.375 0.125 0.25
0.5 0.125 0.25
0.625 0.125 0.25
0.75 0.125 0.25
0.875 0.125 0.25
1 0.125 0.25
1.125 0.125 0.25
1.25 0.125 0.25
1.375 0.125 0.25
1.5 0.125 0.25
1.625 0.125 0.25
1.75 0.125 0.25
1.875 0.125 0.25
2 0.125 0.25
2.125 0.125 0.25
2.25 0.125 0.25
2.375 0.125 0.25
2.5 0.125 0.25
2.625 0.125 0.25
2.75 0.125 0.25
2.875 0.125 0.25
3 0.125 0.25
3.125 0.125 0.25
3.25 0.125 0.25
3.375 0.125 0.25
3.5 0.125 0.25
3.625 0.125 0.25
3.75 0.125 0.25
3.875 0.125 0.25
4 0.125 0.25
0 0.25 0.25
0.125 0.25 0.25
0.25 0.25 0.25
0.375 0.25 0.25
0.5 0.25 0.25
0.625 0.25 0.25
0.75 0.25 0.25
0.875 0.25 0.25
1 0.25 0.25
1.125 0.25 0.25
1.25 0.25 0.25
1.375 0.25 0.25
1.5 0.25 0.25
1.625 0.25 0.25
1.75 0.25 0.25
1.875 0.25 0.25
2 0.25 0.25
2.125 0.25 0.25
2.25 0.25 0.25
2.375 0.25 0.25
2.5 0.25 0.25
2.625 0.25 0.25
2.75 0.25 0.25
2.875 0.25 0.25
3 0.25 0.25
3.125 0.25 0.25
3.25 0.25 0.25
3.375 0.25 0.25
3.5 0.25 0.25
3.625 0.25 0.25
3.75 0.25 0.25
3.875 0.25 0.25
4 0.25 0.25
0 0.375 0.25
0.125 0.375 0.25
0.25 0.375 0.25
0.375 0.375 0.25
0.5 0.375 0.25
0.625 0.375 0.25
0.75 0.375 0.25
0.875 0.375 0.25
1 0.375 0.25
1.125 0.375 0.25
1.25 0.375 0.25
1.375 0.375 0.25
1.5 0.375 0.25
1.625 0.375 0.25
1.75 0.375 0.25
1.875 0.375 0.25
2 0.375 0.25
2.125 0.375 0.25
2.25 0.375 0.25
2.375 0.375 0.25
2.5 0.375 0.25
2.625 0.375 0.25
2.75 0.375 0.25
2.875 0.375 0.25
3 0.375 0.25
3.125 0.375 0.25
3.25 0.375 0.25
[...]
POINT_DATA 2673
SCALARS weights float 1
LOOKUP_TABLE default
0.0813802 0.325521 0.325521 0.325521 0.325521 0.325521 0.325521 0.325521 0.325521 0.325521 0.325521 0.325521 0.325521 0.325521 0.325521 0.325521 0.325521 0.325521 0.325521 0.325521 0.325521 0.325521 0.325521 0.325521 0.325521 0.325521 0.325521 0.325521 0.325521 0.325521 0.325521 0.325521 0.244141 0.325521 0.976562 0.976562 0.976562 0.976562 0.976562 0.976562 0.976562 0.976562 0.976562 0.976562 0.976562 0.976562 0.976562 0.976562 0.976562 0.976562 0.976562 0.976562 0.976562 0.976562 0.976562 0.976562 0.976562 0.976562 0.976562 0.976562 0.976562 0.976562 0.976562 0.976562 0.976562 0.651042 0.325521 0.976562 0.976562 0.976562 0.976562 0.976562 0.976562 0.976562 0.976562 0.976562 0.976562 0.976562 0.976562 0.976562 0.976562 0.976562 0.976562 0.976562 0.976562 0.976562 0.976562 0.976562 0.976562 0.976562 0.976562 0.976562 0.976562 0.976562 0.976562 0.976562 0.976562 0.976562 0.651042 0.325521 0.976562 0.976562 0.976562 0.976562 0.976562 0.976562 0.976562 0.976562 0.976562 0.976562 0.976562 0.976562 0.976562 0.976562 0.976562 0.976562 0.976562 0.976562 0.976562 0.976562 0.976562 0.976562 0.976562 0.976562 0.976562 0.976562 0.976562 0.976562 0.976562 0.976562 0.976562 0.651042 0.325521 0.976562 0.976562 0.976562 0.976562 0.976562 0.976562 0.976562 0.976562 0.976562 0.976562 0.976562 0.976562 0.976562 0.976562 0.976562 0.976562 0.976562 0.976562 0.976562 0.976562 0.976562 0.976562 0.976562 0.976562 0.976562 0.976562 0.976562 0.976562 0.976562 0.976562 0.976562 0.651042 0.325521 0.976562 0.976562 0.976562 0.976562 0.976562 0.976562 0.976562 0.976562 0.976562 0.976562 0.976562 0.976562 0.976562 0.976562 0.976562 0.976562 0.976562 0.976562 0.976562 0.976562 0.976562 0.976562 0.976562 0.976562 0.976562 0.976562 0.976562 0.976562 0.976562 0.976562 0.976562 0.651042 0.325521 0.976562 0.976562 0.976562 0.976562 0.976562 0.976562 0.976562 0.976562 0.976562 0.976562 0.976562 0.976562 0.976562 0.976562 0.976562 0.976562 0.976562 0.976562 0.976562 0.976562 0.976562 0.976562 0.976562 0.976562 0.976562 0.976562 0.976562 0.976562 0.976562 0.976562 0.976562 0.651042 0.325521 0.976562 0.976562 0.976562 0.976562 0.976562 0.976562 0.976562 0.976562 0.976562 0.976562 0.976562 0.976562 0.976562 0.976562 0.976562 0.976562 0.976562 0.976562 0.976562 0.976562 0.976562 0.976562 0.976562 0.976562 0.976562 0.976562 0.976562 0.976562 0.976562 0.976562 0.976562 0.651042 0.244141 0.651042 0.651042 0.651042 0.651042 0.651042 0.651042 0.651042 0.651042 0.651042 0.651042 0.651042 0.651042 0.651042 0.651042 0.651042 0.651042 0.651042 0.651042 0.651042 0.651042 0.651042 0.651042 0.651042 0.651042 0.651042 0.651042 0.651042 0.651042 0.651042 0.651042 0.651042 0.406901 0.488281 0.976562 0.976562 0.976562 0.976562 0.976562 0.976562 0.976562 0.976562 0.976562 0.976562 0.976562 0.976562 0.976562 0.976562 0.976562 0.976562 0.976562 0.976562 0.976562 0.976562 0.976562 0.976562 0.976562 0.976562 0.976562 0.976562 0.976562 0.976562 0.976562 0.976562 0.976562 0.488281 0.976562 1.95313 1.95313 1.95313 1.95313 1.95313 1.95313 1.95313 1.95313 1.95313 1.95313 1.95313 1.95313 1.95313 1.95313 1.95313 1.95313 1.95313 1.95313 1.95313 1.95313 1.95313 1.95313 1.95313 1.95313 1.95313 1.95313 1.95313 1.95313 1.95313 1.95313 1.95313 0.976562 0.976562 1.95313 1.95313 1.95313 1.95313 1.95313 1.95313 1.95313 1.95313 1.95313 1.95313 1.95313 1.95313 1.95313 1.95313 1.95313 1.95313 1.95313 1.95313 1.95313 1.95313 1.95313 1.95313 1.95313 1.95313 1.95313 1.95313 1.95313 1.95313 1.95313 1.95313 1.95313 0.976562 0.976562 1.95313 1.95313 1.95313 1.95313 1.95313 1.95313 1.95313 1.95313 1.95313 1.95313 1.95313 1.95313 1.95313 1.95313 1.95313 1.95313 1.95313 1.95313 1.95313 1.95313 1.95313 1.95313 1.95313 1.95313 1.95313 1.95313 1.95313 1.95313 1.95313 1.95313 1.95313 0.976562 0.976562 1.95313 1.95313 1.95313 1.95313 1.95313 1.95313 1.95313 1.95313 1.95313 1.95313 1.95313 1.95313 1.95313 1.95313 1.95313 1.95313 1.95313 1.95313 1.95313 1.95313 1.95313 1.95313 1.95313 1.95313 1.95313 1.95313 1.95313 1.95313 1.95313 1.95313 1.95313 0.976562 0.976562 1.95313 1.95313 1.95313 1.95313 1.95313 1.95313 1.95313 1.95313 1.95313 1.95313 1.95313 1.95313 1.95313 1.95313 1.95313 1.95313 1.95313 1.95313 1.95313 1.95313 1.95313 1.95313 1.95313 1.95313 1.95313 1.95313 1.95313 1.95313 1.95313 1.95313 1.95313 0.976562 0.976562 1.95313 1.95313 1.95313 1.95313 1.95313 1.95313 1.95313 1.95313 1.95313 1.95313 1.95313 1.95313 1.95313 1.95313 1.95313 1.95313 1.95313 1.95313 1.95313 1.95313 1.95313 1.95313 1.95313 1.95313 1.95313 1.95313 1.95313 1.95313 1.95313 1.95313 1.95313 0.976562 0.976562 1.95313 1.95313 1.95313 1.95313 1.95313 1.95313 1.95313 1.95313 1.95313 1.95313 1.95313 1.95313 1.95313 1.95313 1.95313 1.95313 1.95313 1.95313 1.95313 1.95313 1.95313 1.95313 1.95313 1.95313 1.95313 1.95313 1.95313 1.95313 1.95313 1.95313 1.95313 0.976562 0.488281 0.976562 0.976562 0.976562 0.976562 0.976562 0.976562 0.976562 0.976562 0.976562 0.976562 0.976562 0.976562 0.976562 0.976562 0.976562 0.976562 0.976562 0.976562 0.976562 0.976562 0.976562 0.976562 0.976562 0.976562 0.976562 0.976562 0.976562 0.976562 0.976562 0.976562 0.976562 0.488281 0.488281 0.976562 0.976562 0.976562 0.976562 0.976562 0.976562 0.976562 0.976562 0.976562 0.976562 0.976562 0.976562 0.976562 0.976562 0.976562 0.976562 0.976562 0.976562 0.976562 0.976562 0.976562 0.976562 0.976562 0.976562 0.976562 0.976562 0.976562 0.976562 0.976562 0.976562 0.976562 0.488281 0.976562 1.95313 1.95313 1.95313 1.95313 1.95313 1.95313 1.95313 1.95313 1.95313 1.95313 1.95313 1.95313 1.95313 1.95313 1.95313 1.95313 1.95313 1.95313 1.95313 1.95313 1.95313 1.95313 1.95313 1.95313 1.95313 1.95313 1.95313 1.95313 1.95313 1.95313 1.95313 0.976562 0.976562 1.95313 1.95313 1.95313 1.95313 1.95313 1.95313 1.95313 1.95313 1.95313 1.95313 1.95313 1.95313 1.95313 1.95313 1.95313 1.95313 1.95313 1.95313 1.95313 1.95313 1.95313 1.95313 1.95313 1.95313 1.95313 1.95313 1.95313 1.95313 1.95313 1.95313 1.95313 0.976562 0.976562 1.95313 1.95313 1.95313 1.95313 1.95313 1.95313 1.95313 1.95313 1.95313 1.95313 1.95313 1.95313 1.95313 1.95313 1.95313 1.95313 1.95313 1.95313 1.95313 1.95313 1.95313 1.95313 1.95313 1.95313 1.95313 1.95313 1.95313 1.95313 1.95313 1.95313 1.95313 0.976562 0.976562 1.95313 1.95313 1.95313 1.95313 1.95313 1.95313 1.95313 1.95313 1.95313 1.95313 1.95313 1.95313 1.95313 1.95313 1.95313 1.95313 1.95313 1.95313 1.95313 1.95313 1.95313 1.95313 1.95313 1.95313 1.95313 1.95313 1.95313 1.95313 1.95313 1.95313 1.95313 0.976562 0.976562 1.95313 1.95313 1.95313 1.95313 1.95313 1.95313 1.95313 1.95313 1.95313 1.95313 1.95313 1.95313 1.95313 1.95313 1.95313 1.95313 1.95313 1.95313 1.95313 1.95313 1.95313 1.95313 1.95313 1.95313 1.95313 1.95313 1.95313 1.95313 1.95313 1.95313 1.95313 0.976562 0.976562 1.95313 1.95313 1.95313 1.95313 1.95313 1.95313 1.95313 1.95313 1.95313 1.95313 1.95313 1.95313 1.95313 1.95313 1.95313 1.95313 1.95313 1.95313 1.95313 1.95313 1.95313 1.95313 1.95313 1.95313 1.95313 1.95313 1.95313 1.95313 1.95313 1.95313 1.95313 0.976562 0.976562 1.95313 1.95313 1.95313 1.95313 1.95313 1.95313 1.95313 1.95313 1.95313 1.95313 1.95313 1.95313 1.95313 1.95313 1.95313 1.95313 1.95313 1.95313 1.95313 1.95313 1.95313 1.95313 1.95313 1.95313 1.95313 1.95313 1.95313 1.95313 1.95313 1.95313 1.95313 0.976562 0.488281 0.976562 0.976562 0.976562 0.976562 0.976562 0.976562 0.976562 0.976562 0.976562 0.976562 0.976562 0.976562 0.976562 0.976562 0.976562 0.976562 0.976562 0.976562 0.976562 0.976562 0.976562 0.976562 0.976562 0.976562 0.976562 0.976562 0.976562 0.976562 0.976562 0.976562 0.976562 0.488281 0.488281 0.976562 0.976562 0.976562 0.976562 0.976562 0.976562 0.976562 0.976562 0.976562 0.976562 0.976562 0.976562 0.976562 0.976562 0.976562 0.976562 0.976562 0.976562 0.976562 0.976562 0.976562 0.976562 0.976562 0.976562 0.976562 0.976562 0.976562 0.976562 0.976562 0.976562 0.976562 0.488281 0.976562 1.95313 1.95313 1.95313 1.95313 1.95313 1.95313 1.95313 1.95313 1.95313 1.95313 1.95313 1.95313 1.95313 1.95313 1.95313 1.95313 1.95313 1.95313 1.95313 1.95313 1.95313 1.95313 1.95313 1.95313 1.95313 1.95313 1.95313 1.95313 1.95313 1.95313 1.95313 0.976562 0.976562 1.95313 1.95313 1.95313 1.95313 1.95313 1.95313 1.95313 1.95313 1.95313 1.95313 1.95313 1.95313 1.95313 1.95313 1.95313 1.95313 1.95313 1.95313 1.95313 1.95313 1.95313 1.95313 1.95313 1.95313 1.95313 1.95313 1.95313 1.95313 1.95313 1.95313 1.95313 0.976562 0.976562 1.95313 1.95313 1.95313 1.95313 1.95313 1.95313 1.95313 1.95313 1.95313 1.95313 1.95313 1.95313 1.95313 1.95313 1.95313 1.95313 1.95313 1.95313 1.95313 1.95313 1.95313 1.95313 1.95313 1.95313 1.95313 1.95313 1.95313 1.95313 1.95313 1.95313 1.95313 0.976562 0.976562 1.95313 1.95313 1.95313 1.95313 1.95313 1.95313 1.95313 1.95313 1.95313 1.95313 1.95313 1.95313 1.95313 1.95313 1.95313 1.95313 1.95313 1.95313 1.95313 1.95313 1.95313 1.95313 1.95313 1.95313 1.95313 1.95313 1.95313 1.95313 1.95313 1.95313 1.95313 0.976562 0.976562 1.95313 1.95313 1.95313 1.95313 1.95313 1.95313 1.95313 1.95313 1.95313 1.95313 1.95313 1.95313 1.95313 1.95313 1.95313 1.95313 1.95313 1.95313 1.95313 1.95313 1.95313 1.95313 1.95313 1.95313 1.95313 1.95313 1.95313 1.95313 1.95313 1.95313 1.95313 0.976562 0.976562 1.95313 1.95313 1.95313 1.95313 1.95313 1.95313 1.95313 1.95313 1.95313 1.95313 1.95313 1.95313 1.95313 1.95313 1.95313 1.95313 1.95313 1.95313 1.95313 1.95313 1.95313 1.95313 1.95313 1.95313 1.95313 1.95313 1.95313 1.95313 1.95313 1.95313 1.95313 0.976562 0.976562 1.95313 1.95313 1.95313 1.95313 1.95313 1.95313 1.95313 1.95313 1.95313 1.95313 1.95313 1.95313 1.95313 1.95313 1.95313 1.95313 1.95313 1.95313 1.95313 1.95313 1.95313 1.95313 1.95313 1.95313 1.95313 1.95313 1.95313 1.95313 1.95313 1.95313 1.95313 0.976562 0.488281 0.976562 0.976562 0.976562 0.976562 0.976562 0.976562 0.976562 0.976562 0.976562 0.976562 0.976562 0.976562 0.976562 0.976562 0.976562 0.976562 0.976562 0.976562 0.976562 0.976562 0.976562 0.976562 0.976562 0.976562 0.976562 0.976562 0.976562 0.976562 0.976562 0.976562 0.976562 0.488281 0.488281 0.976562 0.976562 0.976562 0.976562 0.976562 0.976562 0.976562 0.976562 0.976562 0.976562 0.976562 0.976562 0.976562 0.976562 0.976562 0.976562 0.976562 0.976562 0.976562 0.976562 0.976562 0.976562 0.976562 0.976562 0.976562 0.976562 0.976562 0.976562 0.976562 0.976562 0.976562 0.488281 0.976562 1.95313 1.95313 1.95313 1.95313 1.95313 1.95313 1.95313 1.95313 1.95313 1.95313 1.95313 1.95313 1.95313 1.95313 1.95313 1.95313 1.95313 1.95313 1.95313 1.95313 1.95313 1.95313 1.95313 1.95313 1.95313 1.95313 1.95313 1.95313 1.95313 1.95313 1.95313 0.976562 0.976562 1.95313 1.95313 1.95313 1.95313 1.95313 1.95313 1.95313 1.95313 1.95313 1.95313 1.95313 1.95313 1.95313 1.95313 1.95313 1.95313 1.95313 1.95313 1.95313 1.95313 1.95313 1.95313 1.95313 1.95313 1.95313 1.95313 1.95313 1.95313 1.95313 1.95313 1.95313 0.976562 0.976562 1.95313 1.95313 1.95313 1.95313 1.95313 1.95313 1.95313 1.95313 1.95313 1.95313 1.95313 1.95313 1.95313 1.95313 1.95313 1.95313 1.95313 1.95313 1.95313 1.95313 1.95313 1.95313 1.95313 1.95313 1.95313 1.95313 1.95313 1.95313 1.95313 1.95313 1.95313 0.976562 0.976562 1.95313 1.95313 1.95313 1.95313 1.95313 1.95313 1.95313 1.95313 1.95313 1.95313 1.95313 1.95313 1.95313 1.95313 1.95313 1.95313 1.95313 1.95313 1.95313 1.95313 1.95313 1.95313 1.95313 1.95313 1.95313 1.95313 1.95313 1.95313 1.95313 1.95313 1.95313 0.976562 0.976562 1.95313 1.95313 1.95313 1.95313 1.95313 1.95313 1.95313 1.95313 1.95313 1.95313 1.95313 1.95313 1.95313 1.95313 1.95313 1.95313 1.95313 1.95313 1.95313 1.95313 1.95313 1.95313 1.95313 1.95313 1.95313 1.95313 1.95313 1.95313 1.95313 1.95313 1.95313 0.976562 0.976562 1.95313 1.95313 1.95313 1.95313 1.95313 1.95313 1.95313 1.95313 1.95313 1.95313 1.95313 1.95313 1.95313 1.95313 1.95313 1.95313 1.95313 1.95313 1.95313 1.95313 1.95313 1.95313 1.95313 1.95313 1.95313 1.95313 1.95313 1.95313 1.95313 1.95313 1.95313 0.976562 0.976562 1.95313 1.95313 1.95313 1.95313 1.95313 1.95313 1.95313 1.95313 1.95313 1.95313 1.95313 1.95313 1.95313 1.95313 1.95313 1.95313 1.95313 1.95313 1.95313 1.95313 1.95313 1.95313 1.95313 1.95313 1.95313 1.95313 1.95313 1.95313 1.95313 1.95313 1.95313 0.976562 0.488281 0.976562 0.976562 0.976562 0.976562 0.976562 0.976562 0.976562 0.976562 0.976562 0.976562 0.976562 0.976562 0.976562 0.976562 0.976562 0.976562 0.976562 0.976562 0.976562 0.976562 0.976562 0.976562 0.976562 0.976562 0.976562 0.976562 0.976562 0.976562 0.976562 0.976562 0.976562 0.488281 0.488281 0.976562 0.976562 0.976562 0.976562 0.976562 0.976562 0.976562 0.976562 0.976562 0.976562 0.976562 0.976562 0.976562 0.976562 0.976562 0.976562 0.976562 0.976562 0.976562 0.976562 0.976562 0.976562 0.976562 0.976562 0.976562 0.976562 0.976562 0.976562 0.976562 0.976562 0.976562 0.488281 0.976562 1.95313 1.95313 1.95313 1.95313 1.95313 1.95313 1.95313 1.95313 1.95313 1.95313 1.95313 1.95313 1.95313 1.95313 1.95313 1.95313 1.95313 1.95313 1.95313 1.95313 1.95313 1.95313 1.95313 1.95313 1.95313 1.95313 1.95313 1.95313 1.95313 1.95313 1.95313 0.976562 0.976562 1.95313 1.95313 1.95313 1.95313 1.95313 1.95313 1.95313 1.95313 1.95313 1.95313 1.95313 1.95313 1.95313 1.95313 1.95313 1.95313 1.95313 1.95313 1.95313 1.95313 1.95313 1.95313 1.95313 1.95313 1.95313 1.95313 1.95313 1.95313 1.95313 1.95313 1.95313 0.976562 0.976562 1.95313 1.95313 1.95313 1.95313 1.95313 1.95313 1.95313 1.95313 1.95313 1.95313 1.95313 1.95313 1.95313 1.95313 1.95313 1.95313 1.95313 1.95313 1.95313 1.95313 1.95313 1.95313 1.95313 1.95313 1.95313 1.95313 1.95313 1.95313 1.95313 1.95313 1.95313 0.976562 0.976562 1.95313 1.95313 1.95313 1.95313 1.95313 1.95313 1.95313 1.95313 1.95313 1.95313 1.95313 1.95313 1.95313 1.95313 1.95313 1.95313 1.95313 1.95313 1.95313 1.95313 1.95313 1.95313 1.95313 1.95313 1.95313 1.95313 1.95313 1.95313 1.95313 1.95313 1.95313 0.976562 0.976562 1.95313 1.95313 1.95313 1.95313 1.95313 1.95313 1.95313 1.95313 1.95313 1.95313 1.95313 1.95313 1.95313 1.95313 1.95313 1.95313 1.95313 1.95313 1.95313 1.95313 1.95313 1.95313 1.95313 1.95313 1.95313 1.95313 1.95313 1.95313 1.95313 1.95313 1.95313 0.976562 0.976562 1.95313 1.95313 1.95313 1.95313 1.95313 1.95313 1.95313 1.95313 1.95313 1.95313 1.95313 1.95313 1.95313 1.95313 1.95313 1.95313 1.95313 1.95313 1.95313 1.95313 1.95313 1.95313 1.95313 1.95313 1.95313 1.95313 1.95313 1.95313 1.95313 1.95313 1.95313 0.976562 0.976562 1.95313 1.95313 1.95313 1.95313 1.95313 1.95313 1.95313 1.95313 1.95313 1.95313 1.95313 1.95313 1.95313 1.95313 1.95313 1.95313 1.95313 1.95313 1.95313 1.95313 1.95313 1.95313 1.95313 1.95313 1.95313 1.95313 1.95313 1.95313 1.95313 1.95313 1.95313 0.976562 0.488281 0.976562 0.976562 0.976562 0.976562 0.976562 0.976562 0.976562 0.976562 0.976562 0.976562 0.976562 0.976562 0.976562 0.976562 0.976562 0.976562 0.976562 0.976562 0.976562 0.976562 0.976562 0.976562 0.976562 0.976562 0.976562 0.976562 0.976562 0.976562 0.976562 0.976562 0.976562 0.488281 0.488281 0.976562 0.976562 0.976562 0.976562 0.976562 0.976562 0.976562 0.976562 0.976562 0.976562 0.976562 0.976562 0.976562 0.976562 0.976562 0.976562 0.976562 0.976562 0.976562 0.976562 0.976562 0.976562 0.976562 0.976562 0.976562 0.976562 0.976562 0.976562 0.976562 0.976562 0.976562 0.488281 0.976562 1.95313 1.95313 1.95313 1.95313 1.95313 1.95313 1.95313 1.95313 1.95313 1.95313 1.95313 1.95313 1.95313 1.95313 1.95313 1.95313 1.95313 1.95313 1.95313 1.95313 1.95313 1.95313 1.95313 1.95313 1.95313 1.95313 1.95313 1.95313 1.95313 1.95313 1.95313 0.976562 0.976562 1.95313 1.95313 1.95313 1.95313 1.95313 1.95313 1.95313 1.95313 1.95313 1.95313 1.95313 1.95313 1.95313 1.95313 1.95313 1.95313 1.95313 1.95313 1.95313 1.95313 1.95313 1.95313 1.95313 1.95313 1.95313 1.95313 1.95313 1.95313 1.95313 1.95313 1.95313 0.976562 0.976562 1.95313 1.95313 1.95313 1.95313 1.95313 1.95313 1.95313 1.95313 1.95313 1.95313 1.95313 1.95313 1.95313 1.95313 1.95313 1.95313 1.95313 1.95313 1.95313 1.95313 1.95313 1.95313 1.95313 1.95313 1.95313 1.95313 1.95313 1.95313 1.95313 1.95313 1.95313 0.976562 0.976562 1.95313 1.95313 1.95313 1.95313 1.95313 1.95313 1.95313 1.95313 1.95313 1.95313 1.95313 1.95313 1.95313 1.95313 1.95313 1.95313 1.95313 1.95313 1.95313 1.95313 1.95313 1.95313 1.95313 1.95313 1.95313 1.95313 1.95313 1.95313 1.95313 1.95313 1.95313 0.976562 0.976562 1.95313 1.95313 1.95313 1.95313 1.95313 1.95313 1.95313 1.95313 1.95313 1.95313 1.95313 1.95313 1.95313 1.95313 1.95313 1.95313 1.95313 1.95313 1.95313 1.95313 1.95313 1.95313 1.95313 1.95313 1.95313 1.95313 1.95313 1.95313 1.95313 1.95313 1.95313 0.976562 0.976562 1.95313 1.95313 1.95313 1.95313 1.95313 1.95313 1.95313 1.95313 1.95313 1.95313 1.95313 1.95313 1.95313 1.95313 1.95313 1.95313 1.95313 1.95313 1.95313 1.95313 1.95313 1.95313 1.95313 1.95313 1.95313 1.95313 1.95313 1.95313 1.95313 1.95313 1.95313 0.976562 0.976562 1.95313 1.95313 1.95313 1.95313 1.95313 1.95313 1.95313 1.95313 1.95313 1.95313 1.95313 1.95313 1.95313 1.95313 1.95313 1.95313 1.95313 1.95313 1.95313 1.95313 1.95313 1.95313 1.95313 1.95313 1.95313 1.95313 1.95313 1.95313 1.95313 1.95313 1.95313 0.976562 0.488281 0.976562 0.976562 0.976562 0.976562 0.976562 0.976562 0.976562 0.976562 0.976562 0.976562 0.976562 0.976562 0.976562 0.976562 0.976562 0.976562 0.976562 0.976562 0.976562 0.976562 0.976562 0.976562 0.976562 0.976562 0.976562 0.976562 0.976562 0.976562 0.976562 0.976562 0.976562 0.488281 0.488281 0.976562 0.976562 0.976562 0.976562 0.976562 0.976562 0.976562 0.976562 0.976562 0.976562 0.976562 0.976562 0.976562 0.976562 0.976562 0.976562 0.976562 0.976562 0.976562 0.976562 0.976562 0.976562 0.976562 0.976562 0.976562 0.976562 0.976562 0.976562 0.976562 0.976562 0.976562 0.488281 0.976562 1.95313 1.95313 1.95313 1.95313 1.95313 1.95313 1.95313 1.95313 1.95313 1.95313 1.95313 1.95313 1.95313 1.95313 1.95313 1.95313 1.95313 1.95313 1.95313 1.95313 1.95313 1.95313 1.95313 1.95313 1.95313 1.95313 1.95313 1.95313 1.95313 1.95313 1.95313 0.976562 0.976562 1.95313 1.95313 1.95313 1.95313 1.95313 1.95313 1.95313 1.95313 1.95313 1.95313 1.95313 1.95313 1.95313 1.95313 1.95313 1.95313 1.95313 1.95313 1.95313 1.95313 1.95313 1.95313 1.95313 1.95313 1.95313 1.95313 1.95313 1.95313 1.95313 1.95313 1.95313 0.976562 0.976562 1.95313 1.95313 1.95313 1.95313 1.95313 1.95313 1.95313 1.95313 1.95313 1.95313 1.95313 1.95313 1.95313 1.95313 1.95313 1.95313 1.95313 1.95313 1.95313 1.95313 1.95313 1.95313 1.95313 1.95313 1.95313 1.95313 1.95313 1.95313 1.95313 1.95313 1.95313 0.976562 0.976562 1.95313 1.95313 1.95313 1.95313 1.95313 1.95313 1.95313 1.95313 1.95313 1.95313 1.95313 1.95313 1.95313 1.95313 1.95313 1.95313 1.95313 1.95313 1.95313 1.95313 1.95313 1.95313 1.95313 1.95313 1.95313 1.95313 1.95313 1.95313 1.95313 1.95313 1.95313 0.976562 0.976562 1.95313 1.95313 1.95313 1.95313 1.95313 1.95313 1.95313 1.95313 1.95313 1.95313 1.95313 1.95313 1.95313 1.95313 1.95313 1.95313 1.95313 1.95313 1.95313 1.95313 1.95313 1.95313 1.95313 1.95313 1.95313 1.95313 1.95313 1.95313 1.95313 1.95313 1.95313 0.976562 0.976562 1.95313 1.95313 1.95313 1.95313 1.95313 1.95313 1.95313 1.95313 1.95313 1.95313 1.95313 1.95313 1.95313 1.95313 1.95313 1.95313 1.95313 1.95313 1.95313 1.95313 1.95313 1.95313 1.95313 1.95313 1.95313 1.95313 1.95313 1.95313 1.95313 1.95313 1.95313 0.976562 0.976562 1.95313 1.95313 1.95313 1.95313 1.95313 1.95313 1.95313 1.95313 1.95313 1.95313 1.95313 1.95313 1.95313 1.95313 1.95313 1.95313 1.95313 1.95313 1.95313 1.95313 1.95313 1.95313 1.95313 1.95313 1.95313 1.95313 1.95313 1.95313 1.95313 1.95313 1.95313 0.976562 0.488281 0.976562 0.976562 0.976562 0.976562 0.976562 0.976562 0.976562 0.976562 0.976562 0.976562 0.976562 0.976562 0.976562 0.976562 0.976562 0.976562 0.976562 0.976562 0.976562 0.976562 0.976562 0.976562 0.976562 0.976562 0.976562 0.976562 0.976562 0.976562 0.976562 0.976562 0.976562 0.488281 0.406901 0.651042 0.651042 0.651042 0.651042 0.651042 0.651042 0.651042 0