# vtk DataFile Version 5.1
vtk output
ASCII

DATASET UNSTRUCTURED_GRID
POINTS 425 float
0 0 0
0.25 0 0
0.5 0 0
0.75 0 0
1 0 0
1.25 0 0
1.5 0 0
1.75 0 0
2 0 0
2.25 0 0
2.5 0 0
2.75 0 0
3 0 0
3.25 0 0
3.5 0 0
3.75 0 0
4 0 0
0 0.25 0
0.25 0.25 0
0.5 0.25 0
0.75 0.25 0
1 0.25 0
1.25 0.25 0
1.5 0.25 0
1.75 0.25 0
2 0.25 0
2.25 0.25 0
2.5 0.25 0
2.75 0.25 0
3 0.25 0
3.25 0.25 0
3.5 0.25 0
3.75 0.25 0
4 0.25 0
0 0.5 0
0.25 0.5 0
0.5 0.5 0
0.75 0.5 0
1 0.5 0
1.25 0.5 0
1.5 0.5 0
1.75 0.5 0
2 0.5 0
2.25 0.5 0
2.5 0.5 0
2.75 0.5 0
3 0.5 0
3.25 0.5 0
3.5 0.5 0
3.75 0.5 0
4 0.5 0
0 0.75 0
0.25 0.75 0
0.5 0.75 0
0.75 0.75 0
1 0.75 0
1.25 0.75 0
1.5 0.75 0
1.75 0.75 0
2 0.75 0
2.25 0.75 0
2.5 0.75 0
2.75 0.75 0
3 0.75 0
3.25 0.75 0
3.5 0.75 0
3.75 0.75 0
4 0.75 0
0 1 0
0.25 1 0
0.5 1 0
0.75 1 0
1 1 0
1.25 1 0
1.5 1 0
1.75 1 0
2 1 0
2.25 1 0
2.5 1 0
2.75 1 0
3 1 0
3.25 1 0
3.5 1 0
3.75 1 0
4 1 0
0 0 0.25
0.25 0 0.25
0.5 0 0.25
0.75 0 0.25
1 0 0.25
1.25 0 0.25
1.5 0 0.25
1.75 0 0.25
2 0 0.25
2.25 0 0.25
2.5 0 0.25
2.75 0 0.25
3 0 0.25
3.25 0 0.25
3.5 0 0.25
3.75 0 0.25
4 0 0.25
0 0.25 0.25
0.25 0.25 0.25
0.5 0.25 0.25
0.75 0.25 0.25
1 0.25 0.25
1.25 0.25 0.25
1.5 0.25 0.25
1.75 0.25 0.25
2 0.25 0.25
2.25 0.25 0.25
2.5 0.25 0.25
2.75 0.25 0.25
3 0.25 0.25
3.25 0.25 0.25
3.5 0.25 0.25
3.75 0.25 0.25
4 0.25 0.25
0 0.5 0.25
0.25 0.5 0.25
0.5 0.5 0.25
0.75 0.5 0.25
1 0.5 0.25
1.25 0.5 0.25
1.5 0.5 0.25
1.75 0.5 0.25
2 0.5 0.25
2.25 0.5 0.25
2.5 0.5 0.25
2.75 0.5 0.25
3 0.5 0.25
3.25 0.5 0.25
3.5 0.5 0.25
3.75 0.5 0.25
4 0.5 0.25
0 0.75 0.25
0.25 0.75 0.25
0.5 0.75 0.25
0.75 0.75 0.25
1 0.75 0.25
1.25 0.75 0.25
1.5 0.75 0.25
1.75 0.75 0.25
2 0.75 0.25
2.25 0.75 0.25
2.5 0.75 0.25
2.75 0.75 0.25
3 0.75 0.25
3.25 0.75 0.25
3.5 0.75 0.25
3.75 0.75 0.25
4 0.75 0.25
0 1 0.25
0.25 1 0.25
0.5 1 0.25
0.75 1 0.25
1 1 0.25
1.25 1 0.25
1.5 1 0.25
1.75 1 0.25
2 1 0.25
2.25 1 0.25
2.5 1 0.25
2.75 1 0.25
3 1 0.25
3.25 1 0.25
3.5 1 0.25
3.75 1 0.25
4 1 0.25
0 0 0.5
0.25 0 0.5
0.5 0 0.5
0.75 0 0.5
1 0 0.5
1.25 0 0.5
1.5 0 0.5
1.75 0 0.5
2 0 0.5
2.25 0 0.5
2.5 0 0.5
2.75 0 0.5
3 0 0.5
3.25 0 0.5
3.5 0 0.5
3.75 0 0.5
4 0 0.5
0 0.25 0.5
0.25 0.25 0.5
0.5 0.25 0.5
0.75 0.25 0.5
1 0.25 0.5
1.25 0.25 0.5
1.5 0.25 0.5
1.75 0.25 0.5
2 0.25 0.5
2.25 0.25 0.5
2.5 0.25 0.5
2.75 0.25 0.5
3 0.25 0.5
3.25 0.25 0.5
3.5 0.25 0.5
3.75 0.25 0.5
4 0.25 0.5
0 0.5 0.5
0.25 0.5 0.5
0.5 0.5 0.5
0.75 0.5 0.5
1 0.5 0.5
1.25 0.5 0.5
1.5 0.5 0.5
1.75 0.5 0.5
2 0.5 0.5
2.25 0.5 0.5
2.5 0.5 0.5
2.75 0.5 0.5
3 0.5 0.5
3.25 0.5 0.5
3.5 0.5 0.5
3.75 0.5 0.5
4 0.5 0.5
0 0.75 0.5
0.25 0.75 0.5
0.5 0.75 0.5
0.75 0.75 0.5
1 0.75 0.5
1.25 0.75 0.5
1.5 0.75 0.5
1.75 0.75 0.5
2 0.75 0.5
2.25 0.75 0.5
2.5 0.75 0.5
2.75 0.75 0.5
3 0.75 0.5
3.25 0.75 0.5
3.5 0.75 0.5
3.75 0.75 0.5
4 0.75 0.5
0 1 0.5
0.25 1 0.5
0.5 1 0.5
0.75 1 0.5
1 1 0.5
1.25 1 0.5
1.5 1 0.5
1.75 1 0.5
2 1 0.5
2.25 1 0.5
2.5 1 0.5
2.75 1 0.5
3 1 0.5
3.25 1 0.5
3.5 1 0.5
3.75 1 0.5
4 1 0.5
0 0 0.75
0.25 0 0.75
0.5 0 0.75
0.75 0 0.75
1 0 0.75
1.25 0 0.75
1.5 0 0.75
1.75 0 0.75
2 0 0.75
2.25 0 0.75
2.5 0 0.75
2.75 0 0.75
3 0 0.75
3.25 0 0.75
3.5 0 0.75
3.75 0 0.75
4 0 0.75
0 0.25 0.75
0.25 0.25 0.75
0.5 0.25 0.75
0.75 0.25 0.75
1 0.25 0.75
1.25 0.25 0.75
1.5 0.25 0.75
1.75 0.25 0.75
2 0.25 0.75
2.25 0.25 0.75
2.5 0.25 0.75
2.75 0.25 0.75
3 0.25 0.75
3.25 0.25 0.75
3.5 0.25 0.75
3.75 0.25 0.75
4 0.25 0.75
0 0.5 0.75
0.25 0.5 0.75
0.5 0.5 0.75
0.75 0.5 0.75
1 0.5 0.75
1.25 0.5 0.75
1.5 0.5 0.75
1.75 0.5 0.75
2 0.5 0.75
2.25 0.5 0.75
2.5 0.5 0.75
2.75 0.5 0.75
3 0.5 0.75
3.25 0.5 0.75
3.5 0.5 0.75
3.75 0.5 0.75
4 0.5 0.75
0 0.75 0.75
0.25 0.75 0.75
0.5 0.75 0.75
0.75 0.75 0.75
1 0.75 0.75
1.25 0.75 0.75
1.5 0.75 0.75
1.75 0.75 0.75
2 0.75 0.75
2.25 0.75 0.75
2.5 0.75 0.75
2.75 0.75 0.75
3 0.75 0.75
3.25 0.75 0.75
3.5 0.75 0.75
3.75 0.75 0.75
4 0.75 0.75
0 1 0.75
0.25 1 0.75
0.5 1 0.75
0.75 1 0.75
1 1 0.75
1.25 1 0.75
1.5 1 0.75
1.75 1 0.75
2 1 0.75
2.25 1 0.75
2.5 1 0.75
2.75 1 0.75
3 1 0.75
3.25 1 0.75
3.5 1 0.75
3.75 1 0.75
4 1 0.75
0 0 1
0.25 0 1
0.5 0 1
0.75 0 1
1 0 1
1.25 0 1
1.5 0 1
1.75 0 1
2 0 1
2.25 0 1
2.5 0 1
2.75 0 1
3 0 1
3.25 0 1
3.5 0 1
3.75 0 1
4 0 1
0 0.25 1
0.25 0.25 1
0.5 0.25 1
0.75 0.25 1
1 0.25 1
1.25 0.25 1
1.5 0.25 1
1.75 0.25 1
2 0.25 1
2.25 0.25 1
2.5 0.25 1
2.75 0.25 1
3 0.25 1
3.25 0.25 1
3.5 0.25 1
3.75 0.25 1
4 0.25 1
0 0.5 1
0.25 0.5 1
0.5 0.5 1
0.75 0.5 1
1 0.5 1
1.25 0.5 1
1.5 0.5 1
1.75 0.5 1
2 0.5 1
2.25 0.5 1
2.5 0.5 1
2.75 0.5 1
3 0.5 1
3.25 0.5 1
3.5 0.5 1
3.75 0.5 1
4 0.5 1
0 0.75 1
0.25 0.75 1
0.5 0.75 1
0.75 0.75 1
1 0.75 1
1.25 0.75 1
1.5 0.75 1
1.75 0.75 1
2 0.75 1
2.25 0.75 1
2.5 0.75 1
2.75 0.75 1
3 0.75 1
3.25 0.75 1
3.5 0.75 1
3.75 0.75 1
4 0.75 1
0 1 1
0.25 1 1
0.5 1 1
0.75 1 1
1 1 1
1.25 1 1
1.5 1 1
1.75 1 1
2 1 1
2.25 1 1
2.5 1 1
2.75 1 1
3 1 1
3.25 1 1
3.5 1 1
3.75 1 1
4 1 1

CELLS 513 3072
OFFSETS vtktypeint64
0 6 12 18 24 30 36 42 48 54 60 66 72 78 84 90 96 102 108 114 120 126 132 138 144 150 156 162 168 174 180 186 192 198 204 210 216 222 228 234 240 246 252 258 264 270 276 282 288 294 300 306 312 318 324 330 336 342 348 354 360 366 372 378 384 390 396 402 408 414 420 426 432 438 444 450 456 462 468 474 480 486 492 498 504 510 516 522 528 534 540 546 552 558 564 570 576 582 588 594 600 606 612 618 624 630 636 642 648 654 660 666 672 678 684 690 696 702 708 714 720 726 732 738 744 750 756 762 768 774 780 786 792 798 804 810 816 822 828 834 840 846 852 858 864 870 876 882 888 894 900 906 912 918 924 930 936 942 948 954 960 966 972 978 984 990 996 1002 1008 1014 1020 1026 1032 1038 1044 1050 1056 1062 1068 1074 1080 1086 1092 1098 1104 1110 1116 1122 1128 1134 1140 1146 1152 1158 1164 1170 1176 1182 1188 1194 1200 1206 1212 1218 1224 1230 1236 1242 1248 1254 1260 1266 1272 1278 1284 1290 1296 1302 1308 1314 1320 1326 1332 1338 1344 1350 1356 1362 1368 1374 1380 1386 1392 1398 1404 1410 1416 1422 1428 1434 1440 1446 1452 1458 1464 1470 1476 1482 1488 1494 1500 1506 1512 1518 1524 1530 1536 1542 1548 1554 1560 1566 1572 1578 1584 1590 1596 1602 1608 1614 1620 1626 1632 1638 1644 1650 1656 1662 1668 1674 1680 1686 1692 1698 1704 1710 1716 1722 1728 1734 1740 1746 1752 1758 1764 1770 1776 1782 1788 1794 1800 1806 1812 1818 1824 1830 1836 1842 1848 1854 1860 1866 1872 1878 1884 1890 1896 1902 1908 1914 1920 1926 1932 1938 1944 1950 1956 1962 1968 1974 1980 1986 1992 1998 2004 2010 2016 2022 2028 2034 2040 2046 2052 2058 2064 2070 2076 2082 2088 2094 2100 2106 2112 2118 2124 2130 2136 2142 2148 2154 2160 2166 2172 2178 2184 2190 2196 2202 2208 2214 2220 2226 2232 2238 2244 2250 2256 2262 2268 2274 2280 2286 2292 2298 2304 2310 2316 2322 2328 2334 2340 2346 2352 2358 2364 2370 2376 2382 2388 2394 2400 2406 2412 2418 2424 2430 2436 2442 2448 2454 2460 2466 2472 2478 2484 2490 2496 2502 2508 2514 2520 2526 2532 2538 2544 2550 2556 2562 2568 2574 2580 2586 2592 2598 2604 2610 2616 2622 2628 2634 2640 2646 2652 2658 2664 2670 2676 2682 2688 2694 2700 2706 2712 2718 2724 2730 2736 2742 2748 2754 2760 2766 2772 2778 2784 2790 2796 2802 2808 2814 2820 2826 2832 2838 2844 2850 2856 2862 2868 2874 2880 2886 2892 2898 2904 2910 2916 2922 2928 2934 2940 2946 2952 2958 2964 2970 2976 2982 2988 2994 3000 3006 3012 3018 3024 3030 3036 3042 3048 3054 3060 3066 3072 
CONNECTIVITY vtktypeint64
0 1 85 17 18 102 
1 86 85 18 103 102 
1 2 86 18 19 103 
2 87 86 19 104 103 
2 3 87 19 20 104 
3 88 87 20 105 104 
3 4 88 20 21 105 
4 89 88 21 106 105 
4 5 89 21 22 106 
5 90 89 22 107 106 
5 6 90 22 23 107 
6 91 90 23 108 107 
6 7 91 23 24 108 
7 92 91 24 109 108 
7 8 92 24 25 109 
8 93 92 25 110 109 
8 9 93 25 26 110 
9 94 93 26 111 110 
9 10 94 26 27 111 
10 95 94 27 112 111 
10 11 95 27 28 112 
11 96 95 28 113 112 
11 12 96 28 29 113 
12 97 96 29 114 113 
12 13 97 29 30 114 
13 98 97 30 115 114 
13 14 98 30 31 115 
14 99 98 31 116 115 
14 15 99 31 32 116 
15 100 99 32 117 116 
15 16 100 32 33 117 
16 101 100 33 118 117 
17 18 102 34 35 119 
18 103 102 35 120 119 
18 19 103 35 36 120 
19 104 103 36 121 120 
19 20 104 36 37 121 
20 105 104 37 122 121 
20 21 105 37 38 122 
21 106 105 38 123 122 
21 22 106 38 39 123 
22 107 106 39 124 123 
22 23 107 39 40 124 
23 108 107 40 125 124 
23 24 108 40 41 125 
24 109 108 41 126 125 
24 25 109 41 42 126 
25 110 109 42 127 126 
25 26 110 42 43 127 
26 111 110 43 128 127 
26 27 111 43 44 128 
27 112 111 44 129 128 
27 28 112 44 45 129 
28 113 112 45 130 129 
28 29 113 45 46 130 
29 114 113 46 131 130 
29 30 114 46 47 131 
30 115 114 47 132 131 
30 31 115 47 48 132 
31 116 115 48 133 132 
31 32 116 48 49 133 
32 117 116 49 134 133 
32 33 117 49 50 134 
33 118 117 50 135 134 
34 35 119 51 52 136 
35 120 119 52 137 136 
35 36 120 52 53 137 
36 121 120 53 138 137 
36 37 121 53 54 138 
37 122 121 54 139 138 
37 38 122 54 55 139 
38 123 122 55 140 139 
38 39 123 55 56 140 
39 124 123 56 141 140 
39 40 124 56 57 141 
40 125 124 57 142 141 
40 41 125 57 58 142 
41 126 125 58 143 142 
41 42 126 58 59 143 
42 127 126 59 144 143 
42 43 127 59 60 144 
43 128 127 60 145 144 
43 44 128 60 61 145 
44 129 128 61 146 145 
44 45 129 61 62 146 
45 130 129 62 147 146 
45 46 130 62 63 147 
46 131 130 63 148 147 
46 47 131 63 64 148 
47 132 131 64 149 148 
47 48 132 64 65 149 
48 133 132 65 150 149 
48 49 133 65 66 150 
49 134 133 66 151 150 
49 50 134 66 67 151 
50 135 134 67 152 151 
51 52 136 68 69 153 
52 137 136 69 154 153 
52 53 137 69 70 154 
53 138 137 70 155 154 
53 54 138 70 71 155 
54 139 138 71 156 155 
54 55 139 71 72 156 
55 140 139 72 157 156 
55 56 140 72 73 157 
56 141 140 73 158 157 
56 57 141 73 74 158 
57 142 141 74 159 158 
57 58 142 74 75 159 
58 143 142 75 160 159 
58 59 143 75 76 160 
59 144 143 76 161 160 
59 60 144 76 77 161 
60 145 144 77 162 161 
60 61 145 77 78 162 
61 146 145 78 163 162 
61 62 146 78 79 163 
62 147 146 79 164 163 
62 63 147 79 80 164 
63 148 147 80 165 164 
63 64 148 80 81 165 
64 149 148 81 166 165 
64 65 149 81 82 166 
65 150 149 82 167 166 
65 66 150 82 83 167 
66 151 150 83 168 167 
66 67 151 83 84 168 
67 152 151 84 169 168 
[...]
POINT_DATA 425
SCALARS weights float 1
LOOKUP_TABLE default
1.30208 3.90625 3.90625 3.90625 3.90625 3.90625 3.90625 3.90625 3.90625 3.90625 3.90625 3.90625 3.90625 3.90625 3.90625 3.90625 2.60417 2.60417 7.8125 7.8125 7.8125 7.8125 7.8125 7.8125 7.8125 7.8125 7.8125 7.8125 7.8125 7.8125 7.8125 7.8125 7.8125 5.20833 2.60417 7.8125 7.8125 7.8125 7.8125 7.8125 7.8125 7.8125 7.8125 7.8125 7.8125 7.8125 7.8125 7.8125 7.8125 7.8125 5.20833 2.60417 7.8125 7.8125 7.8125 7.8125 7.8125 7.8125 7.8125 7.8125 7.8125 7.8125 7.8125 7.8125 7.8125 7.8125 7.8125 5.20833 1.30208 3.90625 3.90625 3.90625 3.90625 3.90625 3.90625 3.90625 3.90625 3.90625 3.90625 3.90625 3.90625 3.90625 3.90625 3.90625 2.60417 3.90625 7.8125 7.8125 7.8125 7.8125 7.8125 7.8125 7.8125 7.8125 7.8125 7.8125 7.8125 7.8125 7.8125 7.8125 7.8125 3.90625 7.8125 15.625 15.625 15.625 15.625 15.625 15.625 15.625 15.625 15.625 15.625 15.625 15.625 15.625 15.625 15.625 7.8125 7.8125 15.625 15.625 15.625 15.625 15.625 15.625 15.625 15.625 15.625 15.625 15.625 15.625 15.625 15.625 15.625 7.8125 7.8125 15.625 15.625 15.625 15.625 15.625 15.625 15.625 15.625 15.625 15.625 15.625 15.625 15.625 15.625 15.625 7.8125 3.90625 7.8125 7.8125 7.8125 7.8125 7.8125 7.8125 7.8125 7.8125 7.8125 7.8125 7.8125 7.8125 7.8125 7.8125 7.8125 3.90625 3.90625 7.8125 7.8125 7.8125 7.8125 7.8125 7.8125 7.8125 7.8125 7.8125 7.8125 7.8125 7.8125 7.8125 7.8125 7.8125 3.90625 7.8125 15.625 15.625 15.625 15.625 15.625 15.625 15.625 15.625 15.625 15.625 15.625 15.625 15.625 15.625 15.625 7.8125 7.8125 15.625 15.625 15.625 15.625 15.625 15.625 15.625 15.625 15.625 15.625 15.625 15.625 15.625 15.625 15.625 7.8125 7.8125 15.625 15.625 15.625 15.625 15.625 15.625 15.625 15.625 15.625 15.625 15.625 15.625 15.625 15.625 15.625 7.8125 3.90625 7.8125 7.8125 7.8125 7.8125 7.8125 7.8125 7.8125 7.8125 7.8125 7.8125 7.8125 7.8125 7.8125 7.8125 7.8125 3.90625 3.90625 7.8125 7.8125 7.8125 7.8125 7.8125 7.8125 7.8125 7.8125 7.8125 7.8125 7.8125 7.8125 7.8125 7.8125 7.8125 3.90625 7.8125 15.625 15.625 15.625 15.625 15.625 15.625 15.625 15.625 15.625 15.625 15.625 15.625 15.625 15.625 15.625 7.8125 7.8125 15.625 15.625 15.625 15.625 15.625 15.625 15.625 15.625 15.625 15.625 15.625 15.625 15.625 15.625 15.625 7.8125 7.8125 15.625 15.625 15.625 15.625 15.625 15.625 15.625 15.625 15.625 15.625 15.625 15.625 15.625 15.625 15.625 7.8125 3.90625 7.8125 7.8125 7.8125 7.8125 7.8125 7.8125 7.8125 7.8125 7.8125 7.8125 7.8125 7.8125 7.8125 7.8125 7.8125 3.90625 2.60417 3.90625 3.90625 3.90625 3.90625 3.90625 3.90625 3.90625 3.90625 3.90625 3.90625 3.90625 3.90625 3.90625 3.90625 3.90625 1.30208 5.20833 7.8125 7.8125 7.8125 7.8125 7.8125 7.8125 7.8125 7.8125 7.8125 7.8125 7.8125 7.8125 7.8125 7.8125 7.8125 2.60417 5.20833 7.8125 7.8125 7.8125 7.8125 7.8125 7.8125 7.8125 7.8125 7.8125 7.8125 7.8125 7.8125 7.8125 7.8125 7.8125 2.60417 5.20833 7.8125 7.8125 7.8125 7.8125 7.8125 7.8125 7.8125 7.8125 7.8125 7.8125 7.8125 7.8125 7.8125 7.8125 7.8125 2.60417 2.60417 3.90625 3.90625 3.90625 3.90625 3.90625 3.90625 3.90625 3.90625 3.90625 3.90625 3.90625 3.90625 3.90625 3.90625 3.90625 1.30208 
VECTORS u float
0 0 0  -0.0175006 -0.0120256 -0.0104292  -0.0354338 -0.0264027 -0.0122649  -0.0520331 -0.05071 -0.0120467  -0.0675623 -0.0824086 -0.010944  -0.0819206 -0.120345 -0.0096196  -0.0952307 -0.163375 -0.00832825  -0.107591 -0.21058 -0.00710256  -0.119056 -0.261182 -0.00601836  -0.129674 -0.314435 -0.0050711  -0.139507 -0.36968 -0.00426987  -0.148616 -0.42635 -0.00358126  -0.157036 -0.483939 -0.00304946  -0.164843 -0.542033 -0.00258874  -0.17224 -0.600336 -0.00225561  -0.1793 -0.658589 -0.00205914  -0.186171 -0.716606 -0.00195103  0 0 0  -0.00645398 -0.00520343 -0.00508525  -0.0156629 -0.0226708 -0.00605931  -0.0244263 -0.0484147 -0.00579216  -0.0330441 -0.0816643 -0.00518556  -0.0416846 -0.120964 -0.00452098  -0.0503111 -0.165248 -0.00388047  -0.0588989 -0.213594 -0.00328949  -0.0674012 -0.265166 -0.00278406  -0.0757661 -0.319242 -0.00238113  -0.0839608 -0.375152 -0.00200066  -0.0918891 -0.432343 -0.00170636  -0.099602 -0.4903 -0.00145466  -0.10709 -0.548629 -0.00125408  -0.114324 -0.607073 -0.00110541  -0.121386 -0.665367 -0.00100983  -0.12825 -0.723372 -0.000969546  0 0 0  0.000366837 -0.00425223 1.39016e-05  0.000647962 -0.021865 5.25e-05  3.61204e-05 -0.0487888 9.52824e-05  -0.00162148 -0.0828864 0.000172203  -0.00432909 -0.123086 0.000231184  -0.00801885 -0.168259 0.000290471  -0.0125548 -0.217423 0.000300154  -0.0178131 -0.269726 0.000284765  -0.0236189 -0.324419 0.000233864  -0.029861 -0.380841 0.000181148  -0.036417 -0.438408 0.000134496  -0.043149 -0.49665 8.23566e-05  -0.0499611 -0.555182 8.82804e-05  -0.0568211 -0.613722 5.26128e-05  -0.063684 -0.672093 4.6269e-05  -0.0704863 -0.730118 5.59182e-05  0 0 0  0.00705445 -0.00672311 0.00503254  0.0166701 -0.0251172 0.00609978  0.0241798 -0.0519243 0.00597357  0.0294609 -0.0864475 0.00551267  0.0326588 -0.127152 0.00498695  0.0339471 -0.172867 0.0044359  0.0334897 -0.222557 0.00389791  0.0315192 -0.275337 0.00336056  0.0282903 -0.330402 0.00286523  0.0240304 -0.387102 0.00238924  0.0189459 -0.44489 0.00195397  0.0131991 -0.503299 0.00165184  0.00703907 -0.561924 0.00138785  0.000628948 -0.620497 0.00121194  -0.00599217 -0.678872 0.00112194  -0.0127337 -0.736942 0.0010953  0 0 0  0.0172698 -0.014736 0.0100409  0.03543 -0.0310919 0.011931  0.0505279 -0.057842 0.0119252  0.0626945 -0.0923954 0.0110967  0.071725 -0.133328 0.00996411  0.0778168 -0.179292 0.00880812  0.0812576 -0.229229 0.00765786  0.0824058 -0.282207 0.00656159  0.081604 -0.337432 0.0055424  0.0791385 -0.39419 0.00463544  0.0753136 -0.451983 0.00382834  0.0704088 -0.510372 0.00320532  0.0647016 -0.568936 0.00272895  0.0584764 -0.627438 0.00234617  0.0519152 -0.685745 0.00218459  0.045228 -0.743818 0.00212246  0 0 0  -0.0177945 -0.0144443 -0.00497869  -0.0359695 -0.03081 -0.0062734  -0.0529631 -0.0553261 -0.00632884  -0.0686612 -0.0867702 -0.00591356  -0.0830661 -0.124252 -0.00535642  -0.0963585 -0.1668 -0.00479414  -0.10862 -0.213551 -0.00426465  -0.119984 -0.263734 -0.00378066  -0.130471 -0.316627 -0.0033751  -0.140174 -0.371564 -0.00301005  -0.149139 -0.427974 -0.00273071  -0.157478 -0.485341 -0.00248924  -0.165248 -0.543257 -0.00227015  -0.172561 -0.601437 -0.00210525  -0.179603 -0.659586 -0.00198083  -0.186459 -0.717604 -0.00194472  0 0 0  -0.0066562 -0.0082545 -0.00256471  -0.0160221 -0.0267134 -0.00315955  -0.0251294 -0.0527561 -0.00309093  -0.0339859 -0.0857668 -0.00280675  -0.042695 -0.124686 -0.00251977  -0.0512879 -0.168547 -0.00223091  -0.0598245 -0.216461 -0.00195102  -0.0682044 -0.267649 -0.00175048  -0.0764854 -0.321384 -0.00156727  -0.084579 -0.377005 -0.00142743  -0.092412 -0.433938 -0.00130211  -0.100037 -0.491681 -0.00118594  -0.107401 -0.549843 -0.00110431  -0.114604 -0.608162 -0.00102217  -0.121629 -0.666395 -0.000985324  -0.128489 -0.724363 -0.000953093  0 0 0  0.000285298 -0.00720626 -2.43932e-05  0.000327229 -0.025934 -4.76837e-06  -0.000467718 -0.0530005 3.96371e-05  -0.00222552 -0.0869301 0.000101328  -0.00496602 -0.12678 0.000159055  -0.00865173 -0.171544 0.000211626  -0.0131427 -0.220307 0.000238955  -0.0183192 -0.272232 0.000213444  -0.0240717 -0.326583 0.000166863  -0.0302868 -0.382705 0.000133902  -0.0368271 -0.440017 7.83205e-05  -0.0435328 -0.498045 3.92497e-05  -0.0502584 -0.556423 2.45273e-05  -0.0570629 -0.614834 1.43051e-05  -0.0639272 -0.673127 3.67761e-05  -0.0707352 -0.7311 5.8502e-05  0 0 0  0.00707164 -0.0096007 0.00248778  0.0163535 -0.0290009 0.00311691  0.0238298 -0.0561749 0.00314683  0.02913 -0.0905603 0.0030227  0.0323594 -0.130928 0.00283924  0.0336752 -0.176247 0.00263792  0.0332546 -0.225522 0.00242501  0.0313253 -0.277915 0.00218117  0.0281374 -0.332642 0.00192845  0.023874 -0.389042 0.00167328  0.0187819 -0.446564 0.00144997  0.0130661 -0.504751 0.00128123  0.00688934 -0.563195 0.00115693  0.000397444 -0.621624 0.00108224  -0.00624394 -0.679901 0.00106853  -0.0129614 -0.737919 0.00108373  0 0 0  0.0174201 -0.0168198 0.00476861  0.0352319 -0.035162 0.00604665  0.0503598 -0.0622308 0.00624576  0.0625031 -0.0966606 0.0060074  0.0715115 -0.137239 0.0056133  0.0776182 -0.182784 0.00516969  0.0811112 -0.232297 0.00468501  0.0822864 -0.284876 0.00418416  0.0814643 -0.339717 0.00372767  0.0790415 -0.396165 0.00324169  0.0751708 -0.453676 0.00284645  0.0702512 -0.511821 0.00254723  0.0645132 -0.570192 0.00231546  0.0582621 -0.628554 0.00213444  0.0516703 -0.686755 0.00207794  0.04495 -0.744776 0.00205418  0 0 0  -0.0179862 -0.015563 -0.000466079  -0.0362832 -0.0324076 -0.000637591  -0.0533903 -0.0570797 -0.000731975  -0.0690753 -0.0885463 -0.000947148  -0.0834554 -0.125968 -0.00112423  -0.0966927 -0.168429 -0.00131181  -0.108946 -0.215071 -0.00144267  -0.120269 -0.265149 -0.00158095  -0.130745 -0.317945 -0.00167835  -0.140394 -0.372815 -0.0017972  -0.149373 -0.429149 -0.00184673  -0.157658 -0.486457 -0.00193232  -0.165432 -0.544313 -0.00193995  -0.172763 -0.602441 -0.00190204  -0.179774 -0.660545 -0.00189757  -0.186617 -0.718514 -0.00191018  0 0 0  -0.00664337 -0.00910722 -0.000327557  -0.016165 -0.0281946 -0.00027898  -0.0254439 -0.0544891 -0.000286937  -0.0343506 -0.0875378 -0.000367731  -0.0430616 -0.126399 -0.000474244  -0.0516667 -0.170159 -0.00054419  -0.0601619 -0.217966 -0.00062418  -0.0685631 -0.269056 -0.000692725  -0.0768027 -0.322702 -0.000778973  -0.084856 -0.378242 -0.000846744  -0.092694 -0.435107 -0.000908703  -0.100287 -0.492787 -0.00093922  -0.107626 -0.550899 -0.000957996  -0.114815 -0.609164 -0.000956088  -0.121827 -0.667348 -0.000952274  -0.128676 -0.725294 -0.000971347  0 0 0  0.000242084 -0.00800419 4.11272e-06  0.000180066 -0.0273363 2.563e-05  -0.000697315 -0.0547186 5.6386e-05  -0.00248873 -0.0886978 8.34465e-05  -0.00526583 -0.1285 0.000121653  -0.00893736 -0.173178 0.000153184  -0.0133893 -0.221832 0.000178516  -0.018574 -0.273651 0.00017029  -0.0243323 -0.327915 0.000128627  -0.030509 -0.383954 8.45194e-05  -0.0370381 -0.44119 3.96967e-05  -0.0437479 -0.499149 -1.99676e-05  -0.0505066 -0.557466 -1.67489e-05  -0.0573294 -0.61583 -3.27826e-07  -0.0641756 -0.674069 3.20673e-05  -0.0709629 -0.732026 4.76241e-05  0 0 0  0.00698444 -0.0103813 0.000331759  0.0162663 -0.0304243 0.000301957  0.0237309 -0.0578752 0.000392973  0.0289893 -0.0923131 0.000564694  0.0321819 -0.132632 0.000735164  0.0334699 -0.177861 0.000865579  0.0330458 -0.227049 0.000966668  0.0311434 -0.279325 0.00100088  0.0279562 -0.333971 0.0010103  0.0236909 -0.390286 0.000978589  0.0185533 -0.44773 0.00097543  0.0128622 -0.505834 0.000927985  0.00665283 -0.56423 0.000944495  0.000150204 -0.622625 0.000966907  -0.00646615 -0.680858 0.000997603  -0.013201 -0.73884 0.00105661  0 0 0  0.0174698 -0.0178531 0.000412107  0.0352579 -0.0366521 0.000624895  0.0503841 -0.0639039 0.000807464  0.0624132 -0.0983657 0.00111234  0.0713404 -0.138901 0.00140297  0.0774187 -0.184371 0.00162303  0.0808977 -0.233781 0.0017854  0.0820653 -0.286251 0.00188965  0.0812829 -0.341029 0.0019061  0.0788147 -0.397384 0.0019173  0.0749347 -0.454828 0.00188822  0.0699818 -0.512882 0.00190431  0.0642805 -0.571195 0.00189233  0.0579998 -0.629523 0.00190407  0.0514147 -0.687691 0.00194603  0.0446997 -0.745688 0.00199407  0 0 0  -0.0178173 -0.0150279 0.00398123  -0.0366553 -0.0314046 0.00536555  -0.0536043 -0.0562143 0.00492042  -0.0691429 -0.0879294 0.00400579  -0.0834324 -0.125601 0.00304884  -0.0966592 -0.168293 0.00215656  -0.108912 -0.215172 0.00133473  -0.120245 -0.265456 0.000590324  -0.130765 -0.318415 -2.52128e-05  -0.14049 -0.373404 -0.000562251  -0.149452 -0.429858 -0.00102216  -0.157779 -0.487254 -0.00136793  -0.165557 -0.545169 -0.00160015  -0.172907 -0.603309 -0.00171012  -0.179891 -0.661411 -0.00181866  -0.186769 -0.719379 -0.00186002  0 0 0  -0.00678261 -0.00855961 0.0018391  -0.016482 -0.0274887 0.00277025  -0.0255048 -0.0537877 0.00253397  -0.0342733 -0.0869927 0.0020588  -0.0429327 -0.12607 0.00157571  -0.0515019 -0.170057 0.00112545  -0.0600307 -0.218082 0.000740945  -0.0684631 -0.269367 0.000362813  -0.0767329 -0.32317 2.22325e-05  -0.0848379 -0.378839 -0.000252247  -0.092726 -0.435797 -0.00051254  -0.100388 -0.493585 -0.000690997  -0.107781 -0.551756 -0.000800729  -0.114972 -0.610019 -0.000878513  -0.122014 -0.668197 -0.000904799  -0.128873 -0.726136 -0.000966609  0 0 0  0.000266433 -0.00746617 5.88298e-05  0.000236273 -0.0267892 5.8949e-05  -0.000617027 -0.0540715 6.41942e-05  -0.00241923 -0.0881714 8.41618e-05  -0.00518596 -0.128178 7.44462e-05  -0.00887775 -0.173056 0.000100076  -0.0133821 -0.221908 0.000131607  -0.018569 -0.273926 0.000101745  -0.0243719 -0.328352 7.24196e-05  -0.03057 -0.384531 3.31402e-05  -0.0371053 -0.441869 -6.19888e-06  -0.0438716 -0.499917 -3.57628e-05  -0.0507164 -0.558291 -1.63913e-05  -0.0575638 -0.61668 -3.15905e-06  -0.0643671 -0.674927 3.57628e-07  -0.0711539 -0.732856 2.64645e-05  0 0 0  0.00719333 -0.00986904 -0.00174409  0.0166798 -0.0297878 -0.00262922  0.0239244 -0.0572213 -0.00236535  0.029056 -0.0917834 -0.00188363  0.0321618 -0.132315 -0.00136483  0.0334064 -0.177742 -0.000912666  0.032953 -0.227101 -0.00048703  0.0310006 -0.279573 -0.000165403  0.0278058 -0.334386 8.05259e-05  0.0234694 -0.390827 0.000318825  0.0183434 -0.448372 0.000470579  0.0126102 -0.506554 0.000590861  0.00637126 -0.56501 0.000730813  -0.00011611 -0.623465 0.000815332  -0.00674343 -0.681701 0.000935018  -0.0134618 -0.739648 0.00104284  0 0 0  0.0174206 -0.0173314 -0.0038963  0.0358325 -0.03576 -0.00513917  0.0507683 -0.0631579 -0.00465071  0.0626043 -0.0978246 -0.0037294  0.0714294 -0.138582 -0.00277895  0.0774215 -0.18427 -0.00187421  0.0808548 -0.233876 -0.00108469  0.082022 -0.286525 -0.000408828  0.0811522 -0.341446 0.000149071  0.0786567 -0.397922 0.000600457  0.0747478 -0.455479 0.000971794  0.0698221 -0.513631 0.00125349  0.0640979 -0.572009 0.00148022  0.0577765 -0.630374 0.00167567  0.0511255 -0.688539 0.00183457  0.0443668 -0.746475 0.00197387  0 0 0  -0.0202108 -0.011204 0.0109212  -0.037206 -0.0274313 0.011543  -0.0532271 -0.0525329 0.010453  -0.0683146 -0.084897 0.00879371  -0.0824651 -0.123246 0.0071131  -0.0956906 -0.166585 0.00550652  -0.108059 -0.214045 0.00403523  -0.119522 -0.264836 0.00270271  -0.130172 -0.318213 0.00157213  -0.140019 -0.373549 0.000596642  -0.149135 -0.430263 -0.000218391  -0.157606 -0.48786 -0.000836611  -0.16548 -0.54592 -0.00128734  -0.172868 -0.604141 -0.00159353  -0.179922 -0.662273 -0.0017395  -0.186769 -0.720221 -0.00185782  0 0 0  -0.00843662 -0.00641237 0.0050385  -0.0168201 -0.024016 0.00565958  -0.0250916 -0.0503784 0.0051254  -0.033514 -0.0840314 0.00432515  -0.042076 -0.123686 0.00350463  -0.0506899 -0.168263 0.00274503  -0.059266 -0.216849 0.00204098  -0.0678141 -0.268632 0.00139153  -0.076216 -0.322841 0.000810623  -0.0844448 -0.378865 0.000313759  -0.0925069 -0.436106 -9.50694e-05  -0.100277 -0.494091 -0.00042963  -0.107784 -0.552426 -0.000634432  -0.115047 -0.610792 -0.000760496  -0.122071 -0.669033 -0.000866354  -0.128945 -0.726958 -0.000947475  0 0 0  0.000473171 -0.00553373 3.24249e-05  0.000543058 -0.0236633 5.06639e-05  -0.000231326 -0.0507613 3.71933e-05  -0.00201344 -0.0852298 4.08888e-05  -0.00479972 -0.125754 2.40803e-05  -0.00854337 -0.17118 5.49555e-05  -0.0131094 -0.220579 6.47306e-05  -0.0183688 -0.273075 3.61204e-05  -0.0242338 -0.327917 1.19209e-05  -0.0305331 -0.384436 -1.19209e-05  -0.0371642 -0.442067 -1.7345e-05  -0.043978 -0.500353 -5.1558e-05  -0.0508535 -0.558892 -3.70145e-05  -0.0577004 -0.617409 -3.76701e-05  -0.0645883 -0.675752 1.54972e-06  -0.0713477 -0.733652 1.15633e-05  0 0 0  0.00915071 -0.00786853 -0.00495845  0.0175896 -0.0264568 -0.00555062  0.0242911 -0.0539017 -0.00502735  0.0291536 -0.0888151 -0.00424975  0.032122 -0.129855 -0.00341868  0.0332768 -0.175826 -0.002639  0.0327852 -0.225735 -0.00191963  0.0307965 -0.278671 -0.00132197  0.0275514 -0.333894 -0.000798762  0.0232241 -0.390693 -0.000352561  0.0180867 -0.448529 -2.72989e-05  0.0122912 -0.506954 0.000263572  0.00606084 -0.56559 0.000503063  -0.000447273 -0.624173 0.000682354  -0.00711203 -0.682491 0.000877142  -0.0138588 -0.740413 0.00105238  0 0 0  0.020202 -0.0137262 -0.010659  0.0369716 -0.0321498 -0.0111635  0.0512105 -0.0597434 -0.0101124  0.0626624 -0.0949178 -0.00852585  0.0713017 -0.136208 -0.00690335  0.0771878 -0.182467 -0.00531715  0.0805464 -0.232594 -0.00389296  0.081666 -0.285721 -0.00263411  0.0807931 -0.341041 -0.00157762  0.0782592 -0.397882 -0.000654995  0.0743732 -0.455701 7.15256e-05  0.0694313 -0.51406 0.00065887  0.0636592 -0.572626 0.00114191  0.057332 -0.631108 0.00150537  0.0506768 -0.689319 0.0017854  0.0439372 -0.747265 0.00196934  
