# vtk DataFile Version 5.1
vtk output
ASCII

DATASET UNSTRUCTURED_GRID
POINTS 2673 float
0 0 -0.4
0.125 0 -0.4
0.25 0 -0.4
0.375 0 -0.4
0.5 0 -0.4
0.625 0 -0.4
0.75 0 -0.4
0.875 0 -0.4
1 0 -0.4
1.125 0 -0.4
1.25 0 -0.4
1.375 0 -0.4
1.5 0 -0.4
1.625 0 -0.4
1.75 0 -0.4
1.875 0 -0.4
2 0 -0.4
2.125 0 -0.4
2.25 0 -0.4
2.375 0 -0.4
2.5 0 -0.4
2.625 0 -0.4
2.75 0 -0.4
2.875 0 -0.4
3 0 -0.4
3.125 0 -0.4
3.25 0 -0.4
3.375 0 -0.4
3.5 0 -0.4
3.625 0 -0.4
3.75 0 -0.4
3.875 0 -0.4
4 0 -0.4
0 0.125 -0.4
0.125 0.125 -0.4
0.25 0.125 -0.4
0.375 0.125 -0.4
0.5 0.125 -0.4
0.625 0.125 -0.4
0.75 0.125 -0.4
0.875 0.125 -0.4
1 0.125 -0.4
1.125 0.125 -0.4
1.25 0.125 -0.4
1.375 0.125 -0.4
1.5 0.125 -0.4
1.625 0.125 -0.4
1.75 0.125 -0.4
1.875 0.125 -0.4
2 0.125 -0.4
2.125 0.125 -0.4
2.25 0.125 -0.4
2.375 0.125 -0.4
2.5 0.125 -0.4
2.625 0.125 -0.4
2.75 0.125 -0.4
2.875 0.125 -0.4
3 0.125 -0.4
3.125 0.125 -0.4
3.25 0.125 -0.4
3.375 0.125 -0.4
3.5 0.125 -0.4
3.625 0.125 -0.4
3.75 0.125 -0.4
3.875 0.125 -0.4
4 0.125 -0.4
0 0.25 -0.4
0.125 0.25 -0.4
0.25 0.25 -0.4
0.375 0.25 -0.4
0.5 0.25 -0.4
0.625 0.25 -0.4
0.75 0.25 -0.4
0.875 0.25 -0.4
1 0.25 -0.4
1.125 0.25 -0.4
1.25 0.25 -0.4
1.375 0.25 -0.4
1.5 0.25 -0.4
1.625 0.25 -0.4
1.75 0.25 -0.4
1.875 0.25 -0.4
2 0.25 -0.4
2.125 0.25 -0.4
2.25 0.25 -0.4
2.375 0.25 -0.4
2.5 0.25 -0.4
2.625 0.25 -0.4
2.75 0.25 -0.4
2.875 0.25 -0.4
3 0.25 -0.4
3.125 0.25 -0.4
3.25 0.25 -0.4
3.375 0.25 -0.4
3.5 0.25 -0.4
3.625 0.25 -0.4
3.75 0.25 -0.4
3.875 0.25 -0.4
4 0.25 -0.4
0 0.375 -0.4
0.125 0.375 -0.4
0.25 0.375 -0.4
0.375 0.375 -0.4
0.5 0.375 -0.4
0.625 0.375 -0.4
0.75 0.375 -0.4
0.875 0.375 -0.4
1 0.375 -0.4
1.125 0.375 -0.4
1.25 0.375 -0.4
1.375 0.375 -0.4
1.5 0.375 -0.4
1.625 0.375 -0.4
1.75 0.375 -0.4
1.875 0.375 -0.4
2 0.375 -0.4
2.125 0.375 -0.4
2.25 0.375 -0.4
2.375 0.375 -0.4
2.5 0.375 -0.4
2.625 0.375 -0.4
2.75 0.375 -0.4
2.875 0.375 -0.4
3 0.375 -0.4
3.125 0.375 -0.4
3.25 0.375 -0.4
3.375 0.375 -0.4
3.5 0.375 -0.4
3.625 0.375 -0.4
3.75 0.375 -0.4
3.875 0.375 -0.4
4 0.375 -0.4
0 0.5 -0.4
0.125 0.5 -0.4
0.25 0.5 -0.4
0.375 0.5 -0.4
0.5 0.5 -0.4
0.625 0.5 -0.4
0.75 0.5 -0.4
0.875 0.5 -0.4
1 0.5 -0.4
1.125 0.5 -0.4
1.25 0.5 -0.4
1.375 0.5 -0.4
1.5 0.5 -0.4
1.625 0.5 -0.4
1.75 0.5 -0.4
1.875 0.5 -0.4
2 0.5 -0.4
2.125 0.5 -0.4
2.25 0.5 -0.4
2.375 0.5 -0.4
2.5 0.5 -0.4
2.625 0.5 -0.4
2.75 0.5 -0.4
2.875 0.5 -0.4
3 0.5 -0.4
3.125 0.5 -0.4
3.25 0.5 -0.4
3.375 0.5 -0.4
3.5 0.5 -0.4
3.625 0.5 -0.4
3.75 0.5 -0.4
3.875 0.5 -0.4
4 0.5 -0.4
0 0.625 -0.4
0.125 0.625 -0.4
0.25 0.625 -0.4
0.375 0.625 -0.4
0.5 0.625 -0.4
0.625 0.625 -0.4
0.75 0.625 -0.4
0.875 0.625 -0.4
1 0.625 -0.4
1.125 0.625 -0.4
1.25 0.625 -0.4
1.375 0.625 -0.4
1.5 0.625 -0.4
1.625 0.625 -0.4
1.75 0.625 -0.4
1.875 0.625 -0.4
2 0.625 -0.4
2.125 0.625 -0.4
2.25 0.625 -0.4
2.375 0.625 -0.4
2.5 0.625 -0.4
2.625 0.625 -0.4
2.75 0.625 -0.4
2.875 0.625 -0.4
3 0.625 -0.4
3.125 0.625 -0.4
3.25 0.625 -0.4
3.375 0.625 -0.4
3.5 0.625 -0.4
3.625 0.625 -0.4
3.75 0.625 -0.4
3.875 0.625 -0.4
4 0.625 -0.4
0 0.75 -0.4
0.125 0.75 -0.4
0.25 0.75 -0.4
0.375 0.75 -0.4
0.5 0.75 -0.4
0.625 0.75 -0.4
0.75 0.75 -0.4
0.875 0.75 -0.4
1 0.75 -0.4
1.125 0.75 -0.4
1.25 0.75 -0.4
1.375 0.75 -0.4
1.5 0.75 -0.4
1.625 0.75 -0.4
1.75 0.75 -0.4
1.875 0.75 -0.4
2 0.75 -0.4
2.125 0.75 -0.4
2.25 0.75 -0.4
2.375 0.75 -0.4
2.5 0.75 -0.4
2.625 0.75 -0.4
2.75 0.75 -0.4
2.875 0.75 -0.4
3 0.75 -0.4
3.125 0.75 -0.4
3.25 0.75 -0.4
3.375 0.75 -0.4
3.5 0.75 -0.4
3.625 0.75 -0.4
3.75 0.75 -0.4
3.875 0.75 -0.4
4 0.75 -0.4
0 0.875 -0.4
0.125 0.875 -0.4
0.25 0.875 -0.4
0.375 0.875 -0.4
0.5 0.875 -0.4
0.625 0.875 -0.4
0.75 0.875 -0.4
0.875 0.875 -0.4
1 0.875 -0.4
1.125 0.875 -0.4
1.25 0.875 -0.4
1.375 0.875 -0.4
1.5 0.875 -0.4
1.625 0.875 -0.4
1.75 0.875 -0.4
1.875 0.875 -0.4
2 0.875 -0.4
2.125 0.875 -0.4
2.25 0.875 -0.4
2.375 0.875 -0.4
2.5 0.875 -0.4
2.625 0.875 -0.4
2.75 0.875 -0.4
2.875 0.875 -0.4
3 0.875 -0.4
3.125 0.875 -0.4
3.25 0.875 -0.4
3.375 0.875 -0.4
3.5 0.875 -0.4
3.625 0.875 -0.4
3.75 0.875 -0.4
3.875 0.875 -0.4
4 0.875 -0.4
0 1 -0.4
0.125 1 -0.4
0.25 1 -0.4
0.375 1 -0.4
0.5 1 -0.4
0.625 1 -0.4
0.75 1 -0.4
0.875 1 -0.4
1 1 -0.4
1.125 1 -0.4
1.25 1 -0.4
1.375 1 -0.4
1.5 1 -0.4
1.625 1 -0.4
1.75 1 -0.4
1.875 1 -0.4
2 1 -0.4
2.125 1 -0.4
2.25 1 -0.4
2.375 1 -0.4
2.5 1 -0.4
2.625 1 -0.4
2.75 1 -0.4
2.875 1 -0.4
3 1 -0.4
3.125 1 -0.4
3.25 1 -0.4
3.375 1 -0.4
3.5 1 -0.4
3.625 1 -0.4
3.75 1 -0.4
3.875 1 -0.4
4 1 -0.4
0 0 -0.275
0.125 0 -0.275
0.25 0 -0.275
0.375 0 -0.275
0.5 0 -0.275
0.625 0 -0.275
0.75 0 -0.275
0.875 0 -0.275
1 0 -0.275
1.125 0 -0.275
1.25 0 -0.275
1.375 0 -0.275
1.5 0 -0.275
1.625 0 -0.275
1.75 0 -0.275
1.875 0 -0.275
2 0 -0.275
2.125 0 -0.275
2.25 0 -0.275
2.375 0 -0.275
2.5 0 -0.275
2.625 0 -0.275
2.75 0 -0.275
2.875 0 -0.275
3 0 -0.275
3.125 0 -0.275
3.25 0 -0.275
3.375 0 -0.275
3.5 0 -0.275
3.625 0 -0.275
3.75 0 -0.275
3.875 0 -0.275
4 0 -0.275
0 0.125 -0.275
0.125 0.125 -0.275
0.25 0.125 -0.275
0.375 0.125 -0.275
0.5 0.125 -0.275
0.625 0.125 -0.275
0.75 0.125 -0.275
0.875 0.125 -0.275
1 0.125 -0.275
1.125 0.125 -0.275
1.25 0.125 -0.275
1.375 0.125 -0.275
1.5 0.125 -0.275
1.625 0.125 -0.275
1.75 0.125 -0.275
1.875 0.125 -0.275
2 0.125 -0.275
2.125 0.125 -0.275
2.25 0.125 -0.275
2.375 0.125 -0.275
2.5 0.125 -0.275
2.625 0.125 -0.275
2.75 0.125 -0.275
2.875 0.125 -0.275
3 0.125 -0.275
3.125 0.125 -0.275
3.25 0.125 -0.275
3.375 0.125 -0.275
3.5 0.125 -0.275
3.625 0.125 -0.275
3.75 0.125 -0.275
3.875 0.125 -0.275
4 0.125 -0.275
0 0.25 -0.275
0.125 0.25 -0.275
0.25 0.25 -0.275
0.375 0.25 -0.275
0.5 0.25 -0.275
0.625 0.25 -0.275
0.75 0.25 -0.275
0.875 0.25 -0.275
1 0.25 -0.275
1.125 0.25 -0.275
1.25 0.25 -0.275
1.375 0.25 -0.275
1.5 0.25 -0.275
1.625 0.25 -0.275
1.75 0.25 -0.275
1.875 0.25 -0.275
2 0.25 -0.275
2.125 0.25 -0.275
2.25 0.25 -0.275
2.375 0.25 -0.275
2.5 0.25 -0.275
2.625 0.25 -0.275
2.75 0.25 -0.275
2.875 0.25 -0.275
3 0.25 -0.275
3.125 0.25 -0.275
3.25 0.25 -0.275
3.375 0.25 -0.275
3.5 0.25 -0.275
3.625 0.25 -0.275
3.75 0.25 -0.275
3.875 0.25 -0.275
4 0.25 -0.275
0 0.375 -0.275
0.125 0.375 -0.275
0.25 0.375 -0.275
0.375 0.375 -0.275
0.5 0.375 -0.275
0.625 0.375 -0.275
0.75 0.375 -0.275
0.875 0.375 -0.275
1 0.375 -0.275
1.125 0.375 -0.275
1.25 0.375 -0.275
1.375 0.375 -0.275
1.5 0.375 -0.275
1.625 0.375 -0.275
1.75 0.375 -0.275
1.875 0.375 -0.275
2 0.375 -0.275
2.125 0.375 -0.275
2.25 0.375 -0.275
2.375 0.375 -0.275
2.5 0.375 -0.275
2.625 0.375 -0.275
2.75 0.375 -0.275
2.875 0.375 -0.275
3 0.375 -0.275
3.125 0.375 -0.275
3.25 0.375 -0.275
3.375 0.375 -0.275
3.5 0.375 -0.275
3.625 0.375 -0.275
3.75 0.375 -0.275
3.875 0.375 -0.275
4 0.375 -0.275
0 0.5 -0.275
0.125 0.5 -0.275
0.25 0.5 -0.275
0.375 0.5 -0.275
0.5 0.5 -0.275
0.625 0.5 -0.275
0.75 0.5 -0.275
0.875 0.5 -0.275
1 0.5 -0.275
1.125 0.5 -0.275
1.25 0.5 -0.275
1.375 0.5 -0.275
1.5 0.5 -0.275
1.625 0.5 -0.275
1.75 0.5 -0.275
1.875 0.5 -0.275
2 0.5 -0.275
2.125 0.5 -0.275
2.25 0.5 -0.275
2.375 0.5 -0.275
2.5 0.5 -0.275
2.625 0.5 -0.275
2.75 0.5 -0.275
2.875 0.5 -0.275
3 0.5 -0.275
3.125 0.5 -0.275
3.25 0.5 -0.275
3.375 0.5 -0.275
3.5 0.5 -0.275
3.625 0.5 -0.275
3.75 0.5 -0.275
3.875 0.5 -0.275
4 0.5 -0.275
0 0.625 -0.275
0.125 0.625 -0.275
0.25 0.625 -0.275
0.375 0.625 -0.275
0.5 0.625 -0.275
0.625 0.625 -0.275
0.75 0.625 -0.275
0.875 0.625 -0.275
1 0.625 -0.275
1.125 0.625 -0.275
1.25 0.625 -0.275
1.375 0.625 -0.275
1.5 0.625 -0.275
1.625 0.625 -0.275
1.75 0.625 -0.275
1.875 0.625 -0.275
2 0.625 -0.275
2.125 0.625 -0.275
2.25 0.625 -0.275
2.375 0.625 -0.275
2.5 0.625 -0.275
2.625 0.625 -0.275
2.75 0.625 -0.275
2.875 0.625 -0.275
3 0.625 -0.275
3.125 0.625 -0.275
3.25 0.625 -0.275
3.375 0.625 -0.275
3.5 0.625 -0.275
3.625 0.625 -0.275
3.75 0.625 -0.275
3.875 0.625 -0.275
4 0.625 -0.275
0 0.75 -0.275
0.125 0.75 -0.275
0.25 0.75 -0.275
0.375 0.75 -0.275
0.5 0.75 -0.275
0.625 0.75 -0.275
0.75 0.75 -0.275
0.875 0.75 -0.275
1 0.75 -0.275
1.125 0.75 -0.275
1.25 0.75 -0.275
1.375 0.75 -0.275
1.5 0.75 -0.275
1.625 0.75 -0.275
1.75 0.75 -0.275
1.875 0.75 -0.275
2 0.75 -0.275
2.125 0.75 -0.275
2.25 0.75 -0.275
2.375 0.75 -0.275
2.5 0.75 -0.275
2.625 0.75 -0.275
2.75 0.75 -0.275
2.875 0.75 -0.275
3 0.75 -0.275
3.125 0.75 -0.275
3.25 0.75 -0.275
3.375 0.75 -0.275
3.5 0.75 -0.275
3.625 0.75 -0.275
3.75 0.75 -0.275
3.875 0.75 -0.275
4 0.75 -0.275
0 0.875 -0.275
0.125 0.875 -0.275
0.25 0.875 -0.275
0.375 0.875 -0.275
0.5 0.875 -0.275
0.625 0.875 -0.275
0.75 0.875 -0.275
0.875 0.875 -0.275
1 0.875 -0.275
1.125 0.875 -0.275
1.25 0.875 -0.275
1.375 0.875 -0.275
1.5 0.875 -0.275
1.625 0.875 -0.275
1.75 0.875 -0.275
1.875 0.875 -0.275
2 0.875 -0.275
2.125 0.875 -0.275
2.25 0.875 -0.275
2.375 0.875 -0.275
2.5 0.875 -0.275
2.625 0.875 -0.275
2.75 0.875 -0.275
2.875 0.875 -0.275
3 0.875 -0.275
3.125 0.875 -0.275
3.25 0.875 -0.275
3.375 0.875 -0.275
3.5 0.875 -0.275
3.625 0.875 -0.275
3.75 0.875 -0.275
3.875 0.875 -0.275
4 0.875 -0.275
0 1 -0.275
0.125 1 -0.275
0.25 1 -0.275
0.375 1 -0.275
0.5 1 -0.275
0.625 1 -0.275
0.75 1 -0.275
0.875 1 -0.275
1 1 -0.275
1.125 1 -0.275
1.25 1 -0.275
1.375 1 -0.275
1.5 1 -0.275
1.625 1 -0.275
1.75 1 -0.275
1.875 1 -0.275
2 1 -0.275
2.125 1 -0.275
2.25 1 -0.275
2.375 1 -0.275
2.5 1 -0.275
2.625 1 -0.275
2.75 1 -0.275
2.875 1 -0.275
3 1 -0.275
3.125 1 -0.275
3.25 1 -0.275
3.375 1 -0.275
3.5 1 -0.275
3.625 1 -0.275
3.75 1 -0.275
3.875 1 -0.275
4 1 -0.275
0 0 -0.15
0.125 0 -0.15
0.25 0 -0.15
0.375 0 -0.15
0.5 0 -0.15
0.625 0 -0.15
0.75 0 -0.15
0.875 0 -0.15
1 0 -0.15
1.125 0 -0.15
1.25 0 -0.15
1.375 0 -0.15
1.5 0 -0.15
1.625 0 -0.15
1.75 0 -0.15
1.875 0 -0.15
2 0 -0.15
2.125 0 -0.15
2.25 0 -0.15
2.375 0 -0.15
2.5 0 -0.15
2.625 0 -0.15
2.75 0 -0.15
2.875 0 -0.15
3 0 -0.15
3.125 0 -0.15
3.25 0 -0.15
3.375 0 -0.15
3.5 0 -0.15
3.625 0 -0.15
3.75 0 -0.15
3.875 0 -0.15
4 0 -0.15
0 0.125 -0.15
0.125 0.125 -0.15
0.25 0.125 -0.15
0.375 0.125 -0.15
0.5 0.125 -0.15
0.625 0.125 -0.15
0.75 0.125 -0.15
0.875 0.125 -0.15
1 0.125 -0.15
1.125 0.125 -0.15
1.25 0.125 -0.15
1.375 0.125 -0.15
1.5 0.125 -0.15
[...]
POINT_DATA 2673
SCALARS weights float 1
LOOKUP_TABLE default
0.488281 0.651042 0.651042 0.651042 0.651042 0.651042 0.651042 0.651042 0.651042 0.651042 0.651042 0.651042 0.651042 0.651042 0.651042 0.651042 0.651042 0.651042 0.651042 0.651042 0.651042 0.651042 0.651042 0.651042 0.651042 0.651042 0.651042 0.651042 0.651042 0.651042 0.651042 0.651042 0.16276 0.651042 0.976562 0.976562 0.976562 0.976562 0.976562 0.976562 0.976562 0.976562 0.976562 0.976562 0.976562 0.976562 0.976562 0.976562 0.976562 0.976562 0.976562 0.976562 0.976562 0.976562 0.976562 0.976562 0.976562 0.976562 0.976562 0.976562 0.976562 0.976562 0.976562 0.976562 0.976562 0.325521 0.651042 0.976562 0.976562 0.976562 0.976562 0.976562 0.976562 0.976562 0.976562 0.976562 0.976562 0.976562 0.976562 0.976562 0.976562 0.976562 0.976562 0.976562 0.976562 0.976562 0.976562 0.976562 0.976562 0.976562 0.976562 0.976562 0.976562 0.976562 0.976562 0.976562 0.976562 0.976562 0.325521 0.651042 0.976562 0.976562 0.976562 0.976562 0.976562 0.976562 0.976562 0.976562 0.976562 0.976562 0.976562 0.976562 0.976562 0.976562 0.976562 0.976562 0.976562 0.976562 0.976562 0.976562 0.976562 0.976562 0.976562 0.976562 0.976562 0.976562 0.976562 0.976562 0.976562 0.976562 0.976562 0.325521 0.651042 0.976562 0.976562 0.976562 0.976562 0.976562 0.976562 0.976562 0.976562 0.976562 0.976562 0.976562 0.976562 0.976562 0.976562 0.976562 0.976562 0.976562 0.976562 0.976562 0.976562 0.976562 0.976562 0.976562 0.976562 0.976562 0.976562 0.976562 0.976562 0.976562 0.976562 0.976562 0.325521 0.651042 0.976562 0.976562 0.976562 0.976562 0.976562 0.976562 0.976562 0.976562 0.976562 0.976562 0.976562 0.976562 0.976562 0.976562 0.976562 0.976562 0.976562 0.976562 0.976562 0.976562 0.976562 0.976562 0.976562 0.976562 0.976562 0.976562 0.976562 0.976562 0.976562 0.976562 0.976562 0.325521 0.651042 0.976562 0.976562 0.976562 0.976562 0.976562 0.976562 0.976562 0.976562 0.976562 0.976562 0.976562 0.976562 0.976562 0.976562 0.976562 0.976562 0.976562 0.976562 0.976562 0.976562 0.976562 0.976562 0.976562 0.976562 0.976562 0.976562 0.976562 0.976562 0.976562 0.976562 0.976562 0.325521 0.651042 0.976562 0.976562 0.976562 0.976562 0.976562 0.976562 0.976562 0.976562 0.976562 0.976562 0.976562 0.976562 0.976562 0.976562 0.976562 0.976562 0.976562 0.976562 0.976562 0.976562 0.976562 0.976562 0.976562 0.976562 0.976562 0.976562 0.976562 0.976562 0.976562 0.976562 0.976562 0.325521 0.16276 0.325521 0.325521 0.325521 0.325521 0.325521 0.325521 0.325521 0.325521 0.325521 0.325521 0.325521 0.325521 0.325521 0.325521 0.325521 0.325521 0.325521 0.325521 0.325521 0.325521 0.325521 0.325521 0.325521 0.325521 0.325521 0.325521 0.325521 0.325521 0.325521 0.325521 0.325521 0.16276 0.651042 0.976562 0.976562 0.976562 0.976562 0.976562 0.976562 0.976562 0.976562 0.976562 0.976562 0.976562 0.976562 0.976562 0.976562 0.976562 0.976562 0.976562 0.976562 0.976562 0.976562 0.976562 0.976562 0.976562 0.976562 0.976562 0.976562 0.976562 0.976562 0.976562 0.976562 0.976562 0.325521 0.976562 1.95313 1.95313 1.95313 1.95313 1.95313 1.95313 1.95313 1.95313 1.95313 1.95313 1.95313 1.95313 1.95313 1.95313 1.95313 1.95313 1.95313 1.95313 1.95313 1.95313 1.95313 1.95313 1.95313 1.95313 1.95313 1.95313 1.95313 1.95313 1.95313 1.95313 1.95313 0.976562 0.976562 1.95313 1.95313 1.95313 1.95313 1.95313 1.95313 1.95313 1.95313 1.95313 1.95313 1.95313 1.95313 1.95313 1.95313 1.95313 1.95313 1.95313 1.95313 1.95313 1.95313 1.95313 1.95313 1.95313 1.95313 1.95313 1.95313 1.95313 1.95313 1.95313 1.95313 1.95313 0.976562 0.976562 1.95313 1.95313 1.95313 1.95313 1.95313 1.95313 1.95313 1.95313 1.95313 1.95313 1.95313 1.95313 1.95313 1.95313 1.95313 1.95313 1.95313 1.95313 1.95313 1.95313 1.95313 1.95313 1.95313 1.95313 1.95313 1.95313 1.95313 1.95313 1.95313 1.95313 1.95313 0.976562 0.976562 1.95313 1.95313 1.95313 1.95313 1.95313 1.95313 1.95313 1.95313 1.95313 1.95313 1.95313 1.95313 1.95313 1.95313 1.95313 1.95313 1.95313 1.95313 1.95313 1.95313 1.95313 1.95313 1.95313 1.95313 1.95313 1.95313 1.95313 1.95313 1.95313 1.95313 1.95313 0.976562 0.976562 1.95313 1.95313 1.95313 1.95313 1.95313 1.95313 1.95313 1.95313 1.95313 1.95313 1.95313 1.95313 1.95313 1.95313 1.95313 1.95313 1.95313 1.95313 1.95313 1.95313 1.95313 1.95313 1.95313 1.95313 1.95313 1.95313 1.95313 1.95313 1.95313 1.95313 1.95313 0.976562 0.976562 1.95313 1.95313 1.95313 1.95313 1.95313 1.95313 1.95313 1.95313 1.95313 1.95313 1.95313 1.95313 1.95313 1.95313 1.95313 1.95313 1.95313 1.95313 1.95313 1.95313 1.95313 1.95313 1.95313 1.95313 1.95313 1.95313 1.95313 1.95313 1.95313 1.95313 1.95313 0.976562 0.976562 1.95313 1.95313 1.95313 1.95313 1.95313 1.95313 1.95313 1.95313 1.95313 1.95313 1.95313 1.95313 1.95313 1.95313 1.95313 1.95313 1.95313 1.95313 1.95313 1.95313 1.95313 1.95313 1.95313 1.95313 1.95313 1.95313 1.95313 1.95313 1.95313 1.95313 1.95313 0.976562 0.325521 0.976562 0.976562 0.976562 0.976562 0.976562 0.976562 0.976562 0.976562 0.976562 0.976562 0.976562 0.976562 0.976562 0.976562 0.976562 0.976562 0.976562 0.976562 0.976562 0.976562 0.976562 0.976562 0.976562 0.976562 0.976562 0.976562 0.976562 0.976562 0.976562 0.976562 0.976562 0.651042 0.651042 0.976562 0.976562 0.976562 0.976562 0.976562 0.976562 0.976562 0.976562 0.976562 0.976562 0.976562 0.976562 0.976562 0.976562 0.976562 0.976562 0.976562 0.976562 0.976562 0.976562 0.976562 0.976562 0.976562 0.976562 0.976562 0.976562 0.976562 0.976562 0.976562 0.976562 0.976562 0.325521 0.976562 1.95313 1.95313 1.95313 1.95313 1.95313 1.95313 1.95313 1.95313 1.95313 1.95313 1.95313 1.95313 1.95313 1.95313 1.95313 1.95313 1.95313 1.95313 1.95313 1.95313 1.95313 1.95313 1.95313 1.95313 1.95313 1.95313 1.95313 1.95313 1.95313 1.95313 1.95313 0.976562 0.976562 1.95313 1.95313 1.95313 1.95313 1.95313 1.95313 1.95313 1.95313 1.95313 1.95313 1.95313 1.95313 1.95313 1.95313 1.95313 1.95313 1.95313 1.95313 1.95313 1.95313 1.95313 1.95313 1.95313 1.95313 1.95313 1.95313 1.95313 1.95313 1.95313 1.95313 1.95313 0.976562 0.976562 1.95313 1.95313 1.95313 1.95313 1.95313 1.95313 1.95313 1.95313 1.95313 1.95313 1.95313 1.95313 1.95313 1.95313 1.95313 1.95313 1.95313 1.95313 1.95313 1.95313 1.95313 1.95313 1.95313 1.95313 1.95313 1.95313 1.95313 1.95313 1.95313 1.95313 1.95313 0.976562 0.976562 1.95313 1.95313 1.95313 1.95313 1.95313 1.95313 1.95313 1.95313 1.95313 1.95313 1.95313 1.95313 1.95313 1.95313 1.95313 1.95313 1.95313 1.95313 1.95313 1.95313 1.95313 1.95313 1.95313 1.95313 1.95313 1.95313 1.95313 1.95313 1.95313 1.95313 1.95313 0.976562 0.976562 1.95313 1.95313 1.95313 1.95313 1.95313 1.95313 1.95313 1.95313 1.95313 1.95313 1.95313 1.95313 1.95313 1.95313 1.95313 1.95313 1.95313 1.95313 1.95313 1.95313 1.95313 1.95313 1.95313 1.95313 1.95313 1.95313 1.95313 1.95313 1.95313 1.95313 1.95313 0.976562 0.976562 1.95313 1.95313 1.95313 1.95313 1.95313 1.95313 1.95313 1.95313 1.95313 1.95313 1.95313 1.95313 1.95313 1.95313 1.95313 1.95313 1.95313 1.95313 1.95313 1.95313 1.95313 1.95313 1.95313 1.95313 1.95313 1.95313 1.95313 1.95313 1.95313 1.95313 1.95313 0.976562 0.976562 1.95313 1.95313 1.95313 1.95313 1.95313 1.95313 1.95313 1.95313 1.95313 1.95313 1.95313 1.95313 1.95313 1.95313 1.95313 1.95313 1.95313 1.95313 1.95313 1.95313 1.95313 1.95313 1.95313 1.95313 1.95313 1.95313 1.95313 1.95313 1.95313 1.95313 1.95313 0.976562 0.325521 0.976562 0.976562 0.976562 0.976562 0.976562 0.976562 0.976562 0.976562 0.976562 0.976562 0.976562 0.976562 0.976562 0.976562 0.976562 0.976562 0.976562 0.976562 0.976562 0.976562 0.976562 0.976562 0.976562 0.976562 0.976562 0.976562 0.976562 0.976562 0.976562 0.976562 0.976562 0.651042 0.651042 0.976562 0.976562 0.976562 0.976562 0.976562 0.976562 0.976562 0.976562 0.976562 0.976562 0.976562 0.976562 0.976562 0.976562 0.976562 0.976562 0.976562 0.976562 0.976562 0.976562 0.976562 0.976562 0.976562 0.976562 0.976562 0.976562 0.976562 0.976562 0.976562 0.976562 0.976562 0.325521 0.976562 1.95313 1.95313 1.95313 1.95313 1.95313 1.95313 1.95313 1.95313 1.95313 1.95313 1.95313 1.95313 1.95313 1.95313 1.95313 1.95313 1.95313 1.95313 1.95313 1.95313 1.95313 1.95313 1.95313 1.95313 1.95313 1.95313 1.95313 1.95313 1.95313 1.95313 1.95313 0.976562 0.976562 1.95313 1.95313 1.95313 1.95313 1.95313 1.95313 1.95313 1.95313 1.95313 1.95313 1.95313 1.95313 1.95313 1.95313 1.95313 1.95313 1.95313 1.95313 1.95313 1.95313 1.95313 1.95313 1.95313 1.95313 1.95313 1.95313 1.95313 1.95313 1.95313 1.95313 1.95313 0.976562 0.976562 1.95313 1.95313 1.95313 1.95313 1.95313 1.95313 1.95313 1.95313 1.95313 1.95313 1.95313 1.95313 1.95313 1.95313 1.95313 1.95313 1.95313 1.95313 1.95313 1.95313 1.95313 1.95313 1.95313 1.95313 1.95313 1.95313 1.95313 1.95313 1.95313 1.95313 1.95313 0.976562 0.976562 1.95313 1.95313 1.95313 1.95313 1.95313 1.95313 1.95313 1.95313 1.95313 1.95313 1.95313 1.95313 1.95313 1.95313 1.95313 1.95313 1.95313 1.95313 1.95313 1.95313 1.95313 1.95313 1.95313 1.95313 1.95313 1.95313 1.95313 1.95313 1.95313 1.95313 1.95313 0.976562 0.976562 1.95313 1.95313 1.95313 1.95313 1.95313 1.95313 1.95313 1.95313 1.95313 1.95313 1.95313 1.95313 1.95313 1.95313 1.95313 1.95313 1.95313 1.95313 1.95313 1.95313 1.95313 1.95313 1.95313 1.95313 1.95313 1.95313 1.95313 1.95313 1.95313 1.95313 1.95313 0.976562 0.976562 1.95313 1.95313 1.95313 1.95313 1.95313 1.95313 1.95313 1.95313 1.95313 1.95313 1.95313 1.95313 1.95313 1.95313 1.95313 1.95313 1.95313 1.95313 1.95313 1.95313 1.95313 1.95313 1.95313 1.95313 1.95313 1.95313 1.95313 1.95313 1.95313 1.95313 1.95313 0.976562 0.976562 1.95313 1.95313 1.95313 1.95313 1.95313 1.95313 1.95313 1.95313 1.95313 1.95313 1.95313 1.95313 1.95313 1.95313 1.95313 1.95313 1.95313 1.95313 1.95313 1.95313 1.95313 1.95313 1.95313 1.95313 1.95313 1.95313 1.95313 1.95313 1.95313 1.95313 1.95313 0.976562 0.325521 0.976562 0.976562 0.976562 0.976562 0.976562 0.976562 0.976562 0.976562 0.976562 0.976562 0.976562 0.976562 0.976562 0.976562 0.976562 0.976562 0.976562 0.976562 0.976562 0.976562 0.976562 0.976562 0.976562 0.976562 0.976562 0.976562 0.976562 0.976562 0.976562 0.976562 0.976562 0.651042 0.651042 0.976562 0.976562 0.976562 0.976562 0.976562 0.976562 0.976562 0.976562 0.976562 0.976562 0.976562 0.976562 0.976562 0.976562 0.976562 0.976562 0.976562 0.976562 0.976562 0.976562 0.976562 0.976562 0.976562 0.976562 0.976562 0.976562 0.976562 0.976562 0.976562 0.976562 0.976562 0.325521 0.976562 1.95313 1.95313 1.95313 1.95313 1.95313 1.95313 1.95313 1.95313 1.95313 1.95313 1.95313 1.95313 1.95313 1.95313 1.95313 1.95313 1.95313 1.95313 1.95313 1.95313 1.95313 1.95313 1.95313 1.95313 1.95313 1.95313 1.95313 1.95313 1.95313 1.95313 1.95313 0.976562 0.976562 1.95313 1.95313 1.95313 1.95313 1.95313 1.95313 1.95313 1.95313 1.95313 1.95313 1.95313 1.95313 1.95313 1.95313 1.95313 1.95313 1.95313 1.95313 1.95313 1.95313 1.95313 1.95313 1.95313 1.95313 1.95313 1.95313 1.95313 1.95313 1.95313 1.95313 1.95313 0.976562 0.976562 1.95313 1.95313 1.95313 1.95313 1.95313 1.95313 1.95313 1.95313 1.95313 1.95313 1.95313 1.95313 1.95313 1.95313 1.95313 1.95313 1.95313 1.95313 1.95313 1.95313 1.95313 1.95313 1.95313 1.95313 1.95313 1.95313 1.95313 1.95313 1.95313 1.95313 1.95313 0.976562 0.976562 1.95313 1.95313 1.95313 1.95313 1.95313 1.95313 1.95313 1.95313 1.95313 1.95313 1.95313 1.95313 1.95313 1.95313 1.95313 1.95313 1.95313 1.95313 1.95313 1.95313 1.95313 1.95313 1.95313 1.95313 1.95313 1.95313 1.95313 1.95313 1.95313 1.95313 1.95313 0.976562 0.976562 1.95313 1.95313 1.95313 1.95313 1.95313 1.95313 1.95313 1.95313 1.95313 1.95313 1.95313 1.95313 1.95313 1.95313 1.95313 1.95313 1.95313 1.95313 1.95313 1.95313 1.95313 1.95313 1.95313 1.95313 1.95313 1.95313 1.95313 1.95313 1.95313 1.95313 1.95313 0.976562 0.976562 1.95313 1.95313 1.95313 1.95313 1.95313 1.95313 1.95313 1.95313 1.95313 1.95313 1.95313 1.95313 1.95313 1.95313 1.95313 1.95313 1.95313 1.95313 1.95313 1.95313 1.95313 1.95313 1.95313 1.95313 1.95313 1.95313 1.95313 1.95313 1.95313 1.95313 1.95313 0.976562 0.976562 1.95313 1.95313 1.95313 1.95313 1.95313 1.95313 1.95313 1.95313 1.95313 1.95313 1.95313 1.95313 1.95313 1.95313 1.95313 1.95313 1.95313 1.95313 1.95313 1.95313 1.95313 1.95313 1.95313 1.95313 1.95313 1.95313 1.95313 1.95313 1.95313 1.95313 1.95313 0.976562 0.325521 0.976562 0.976562 0.976562 0.976562 0.976562 0.976562 0.976562 0.976562 0.976562 0.976562 0.976562 0.976562 0.976562 0.976562 0.976562 0.976562 0.976562 0.976562 0.976562 0.976562 0.976562 0.976562 0.976562 0.976562 0.976562 0.976562 0.976562 0.976562 0.976562 0.976562 0.976562 0.651042 0.651042 0.976562 0.976562 0.976562 0.976562 0.976562 0.976562 0.976562 0.976562 0.976562 0.976562 0.976562 0.976562 0.976562 0.976562 0.976562 0.976562 0.976562 0.976562 0.976562 0.976562 0.976562 0.976562 0.976562 0.976562 0.976562 0.976562 0.976562 0.976562 0.976562 0.976562 0.976562 0.325521 0.976562 1.95313 1.95313 1.95313 1.95313 1.95313 1.95313 1.95313 1.95313 1.95313 1.95313 1.95313 1.95313 1.95313 1.95313 1.95313 1.95313 1.95313 1.95313 1.95313 1.95313 1.95313 1.95313 1.95313 1.95313 1.95313 1.95313 1.95313 1.95313 1.95313 1.95313 1.95313 0.976562 0.976562 1.95313 1.95313 1.95313 1.95313 1.95313 1.95313 1.95313 1.95313 1.95313 1.95313 1.95313 1.95313 1.95313 1.95313 1.95313 1.95313 1.95313 1.95313 1.95313 1.95313 1.95313 1.95313 1.95313 1.95313 1.95313 1.95313 1.95313 1.95313 1.95313 1.95313 1.95313 0.976562 0.976562 1.95313 1.95313 1.95313 1.95313 1.95313 1.95313 1.95313 1.95313 1.95313 1.95313 1.95313 1.95313 1.95313 1.95313 1.95313 1.95313 1.95313 1.95313 1.95313 1.95313 1.95313 1.95313 1.95313 1.95313 1.95313 1.95313 1.95313 1.95313 1.95313 1.95313 1.95313 0.976562 0.976562 1.95313 1.95313 1.95313 1.95313 1.95313 1.95313 1.95313 1.95313 1.95313 1.95313 1.95313 1.95313 1.95313 1.95313 1.95313 1.95313 1.95313 1.95313 1.95313 1.95313 1.95313 1.95313 1.95313 1.95313 1.95313 1.95313 1.95313 1.95313 1.95313 1.95313 1.95313 0.976562 0.976562 1.95313 1.95313 1.95313 1.95313 1.95313 1.95313 1.95313 1.95313 1.95313 1.95313 1.95313 1.95313 1.95313 1.95313 1.95313 1.95313 1.95313 1.95313 1.95313 1.95313 1.95313 1.95313 1.95313 1.95313 1.95313 1.95313 1.95313 1.95313 1.95313 1.95313 1.95313 0.976562 0.976562 1.95313 1.95313 1.95313 1.95313 1.95313 1.95313 1.95313 1.95313 1.95313 1.95313 1.95313 1.95313 1.95313 1.95313 1.95313 1.95313 1.95313 1.95313 1.95313 1.95313 1.95313 1.95313 1.95313 1.95313 1.95313 1.95313 1.95313 1.95313 1.95313 1.95313 1.95313 0.976562 0.976562 1.95313 1.95313 1.95313 1.95313 1.95313 1.95313 1.95313 1.95313 1.95313 1.95313 1.95313 1.95313 1.95313 1.95313 1.95313 1.95313 1.95313 1.95313 1.95313 1.95313 1.95313 1.95313 1.95313 1.95313 1.95313 1.95313 1.95313 1.95313 1.95313 1.95313 1.95313 0.976562 0.325521 0.976562 0.976562 0.976562 0.976562 0.976562 0.976562 0.976562 0.976562 0.976562 0.976562 0.976562 0.976562 0.976562 0.976562 0.976562 0.976562 0.976562 0.976562 0.976562 0.976562 0.976562 0.976562 0.976562 0.976562 0.976562 0.976562 0.976562 0.976562 0.976562 0.976562 0.976562 0.651042 0.651042 0.976562 0.976562 0.976562 0.976562 0.976562 0.976562 0.976562 0.976562 0.976562 0.976562 0.976562 0.976562 0.976562 0.976562 0.976562 0.976562 0.976562 0.976562 0.976562 0.976562 0.976562 0.976562 0.976562 0.976562 0.976562 0.976562 0.976562 0.976562 0.976562 0.976562 0.976562 0.325521 0.976562 1.95313 1.95313 1.95313 1.95313 1.95313 1.95313 1.95313 1.95313 1.95313 1.95313 1.95313 1.95313 1.95313 1.95313 1.95313 1.95313 1.95313 1.95313 1.95313 1.95313 1.95313 1.95313 1.95313 1.95313 1.95313 1.95313 1.95313 1.95313 1.95313 1.95313 1.95313 0.976562 0.976562 1.95313 1.95313 1.95313 1.95313 1.95313 1.95313 1.95313 1.95313 1.95313 1.95313 1.95313 1.95313 1.95313 1.95313 1.95313 1.95313 1.95313 1.95313 1.95313 1.95313 1.95313 1.95313 1.95313 1.95313 1.95313 1.95313 1.95313 1.95313 1.95313 1.95313 1.95313 0.976562 0.976562 1.95313 1.95313 1.95313 1.95313 1.95313 1.95313 1.95313 1.95313 1.95313 1.95313 1.95313 1.95313 1.95313 1.95313 1.95313 1.95313 1.95313 1.95313 1.95313 1.95313 1.95313 1.95313 1.95313 1.95313 1.95313 1.95313 1.95313 1.95313 1.95313 1.95313 1.95313 0.976562 0.976562 1.95313 1.95313 1.95313 1.95313 1.95313 1.95313 1.95313 1.95313 1.95313 1.95313 1.95313 1.95313 1.95313 1.95313 1.95313 1.95313 1.95313 1.95313 1.95313 1.95313 1.95313 1.95313 1.95313 1.95313 1.95313 1.95313 1.95313 1.95313 1.95313 1.95313 1.95313 0.976562 0.976562 1.95313 1.95313 1.95313 1.95313 1.95313 1.95313 1.95313 1.95313 1.95313 1.95313 1.95313 1.95313 1.95313 1.95313 1.95313 1.95313 1.95313 1.95313 1.95313 1.95313 1.95313 1.95313 1.95313 1.95313 1.95313 1.95313 1.95313 1.95313 1.95313 1.95313 1.95313 0.976562 0.976562 1.95313 1.95313 1.95313 1.95313 1.95313 1.95313 1.95313 1.95313 1.95313 1.95313 1.95313 1.95313 1.95313 1.95313 1.95313 1.95313 1.95313 1.95313 1.95313 1.95313 1.95313 1.95313 1.95313 1.95313 1.95313 1.95313 1.95313 1.95313 1.95313 1.95313 1.95313 0.976562 0.976562 1.95313 1.95313 1.95313 1.95313 1.95313 1.95313 1.95313 1.95313 1.95313 1.95313 1.95313 1.95313 1.95313 1.95313 1.95313 1.95313 1.95313 1.95313 1.95313 1.95313 1.95313 1.95313 1.95313 1.95313 1.95313 1.95313 1.95313 1.95313 1.95313 1.95313 1.95313 0.976562 0.325521 0.976562 0.976562 0.976562 0.976562 0.976562 0.976562 0.976562 0.976562 0.976562 0.976562 0.976562 0.976562 0.976562 0.976562 0.976562 0.976562 0.976562 0.976562 0.976562 0.976562 0.976562 0.976562 0.976562 0.976562 0.976562 0.976562 0.976562 0.976562 0.976562 0.976562 0.976562 0.651042 0.651042 0.976563 0.976563 0.976563 0.976563 0.976563 0.976563 0.976563 0.976563 0.976563 0.976563 0.976563 0.976563 0.976563 0.976563 0.976563 0.976563 0.976563 0.976563 0.976563 0.976563 0.976563 0.976563 0.976563 0.976563 0.976563 0.976563 0.976563 0.976563 0.976563 0.976563 0.976563 0.325521 0.976563 1.95313 1.95313 1.95313 1.95313 1.95313 1.95313 1.95313 1.95313 1.95313 1.95313 1.95313 1.95313 1.95313 1.95313 1.95313 1.95313 1.95313 1.95313 1.95313 1.95313 1.95313 1.95313 1.95313 1.95313 1.95313 1.95313 1.95313 1.95313 1.95313 1.95313 1.95313 0.976563 0.976563 1.95313 1.95313 1.95313 1.95313 1.95313 1.95313 1.95313 1.95313 1.95313 1.95313 1.95313 1.95313 1.95313 1.95313 1.95313 1.95313 1.95313 1.95313 1.95313 1.95313 1.95313 1.95313 1.95313 1.95313 1.95313 1.95313 1.95313 1.95313 1.95313 1.95313 1.95313 0.976563 0.976563 1.95313 1.95313 1.95313 1.95313 1.95313 1.95313 1.95313 1.95313 1.95313 1.95313 1.95313 1.95313 1.95313 1.95313 1.95313 1.95313 1.95313 1.95313 1.95313 1.95313 1.95313 1.95313 1.95313 1.95313 1.95313 1.95313 1.95313 1.95313 1.95313 1.95313 1.95313 0.976563 0.976563 1.95313 1.95313 1.95313 1.95313 1.95313 1.95313 1.95313 1.95313 1.95313 1.95313 1.95313 1.95313 1.95313 1.95313 1.95313 1.95313 1.95313 1.95313 1.95313 1.95313 1.95313 1.95313 1.95313 1.95313 1.95313 1.95313 1.95313 1.95313 1.95313 1.95313 1.95313 0.976563 0.976563 1.95313 1.95313 1.95313 1.95313 1.95313 1.95313 1.95313 1.95313 1.95313 1.95313 1.95313 1.95313 1.95313 1.95313 1.95313 1.95313 1.95313 1.95313 1.95313 1.95313 1.95313 1.95313 1.95313 1.95313 1.95313 1.95313 1.95313 1.95313 1.95313 1.95313 1.95313 0.976563 0.976563 1.95313 1.95313 1.95313 1.95313 1.95313 1.95313 1.95313 1.95313 1.95313 1.95313 1.95313 1.95313 1.95313 1.95313 1.95313 1.95313 1.95313 1.95313 1.95313 1.95313 1.95313 1.95313 1.95313 1.95313 1.95313 1.95313 1.95313 1.95313 1.95313 1.95313 1.95313 0.976563 0.976563 1.95313 1.95313 1.95313 1.95313 1.95313 1.95313 1.95313 1.95313 1.95313 1.95313 1.95313 1.95313 1.95313 1.95313 1.95313 1.95313 1.95313 1.95313 1.95313 1.95313 1.95313 1.95313 1.95313 1.95313 1.95313 1.95313 1.95313 1.95313 1.95313 1.95313 1.95313 0.976563 0.325521 0.976563 0.976563 0.976563 0.976563 0.976563 0.976563 0.976563 0.976563 0.976563 0.976563 0.976563 0.976563 0.976563 0.976563 0.976563 0.976563 0.976563 0.976563 0.976563 0.976563 0.976563 0.976563 0.976563 0.976563 0.976563 0.976563 0.976563 0.976563 0.976563 0.976563 0.976563 0.651042 0.16276 0.325521 0.325521 0.325521 0.325521 0.325521 0.325521 0.325521 0.3255