# vtk DataFile Version 5.1
vtk output
ASCII

DATASET UNSTRUCTURED_GRID
POINTS 2673 float
0 0 2.3
0.125 0 2.3
0.25 0 2.3
0.375 0 2.3
0.5 0 2.3
0.625 0 2.3
0.75 0 2.3
0.875 0 2.3
1 0 2.3
1.125 0 2.3
1.25 0 2.3
1.375 0 2.3
1.5 0 2.3
1.625 0 2.3
1.75 0 2.3
1.875 0 2.3
2 0 2.3
2.125 0 2.3
2.25 0 2.3
2.375 0 2.3
2.5 0 2.3
2.625 0 2.3
2.75 0 2.3
2.875 0 2.3
3 0 2.3
3.125 0 2.3
3.25 0 2.3
3.375 0 2.3
3.5 0 2.3
3.625 0 2.3
3.75 0 2.3
3.875 0 2.3
4 0 2.3
0 0.125 2.3
0.125 0.125 2.3
0.25 0.125 2.3
0.375 0.125 2.3
0.5 0.125 2.3
0.625 0.125 2.3
0.75 0.125 2.3
0.875 0.125 2.3
1 0.125 2.3
1.125 0.125 2.3
1.25 0.125 2.3
1.375 0.125 2.3
1.5 0.125 2.3
1.625 0.125 2.3
1.75 0.125 2.3
1.875 0.125 2.3
2 0.125 2.3
2.125 0.125 2.3
2.25 0.125 2.3
2.375 0.125 2.3
2.5 0.125 2.3
2.625 0.125 2.3
2.75 0.125 2.3
2.875 0.125 2.3
3 0.125 2.3
3.125 0.125 2.3
3.25 0.125 2.3
3.375 0.125 2.3
3.5 0.125 2.3
3.625 0.125 2.3
3.75 0.125 2.3
3.875 0.125 2.3
4 0.125 2.3
0 0.25 2.3
0.125 0.25 2.3
0.25 0.25 2.3
0.375 0.25 2.3
0.5 0.25 2.3
0.625 0.25 2.3
0.75 0.25 2.3
0.875 0.25 2.3
1 0.25 2.3
1.125 0.25 2.3
1.25 0.25 2.3
1.375 0.25 2.3
1.5 0.25 2.3
1.625 0.25 2.3
1.75 0.25 2.3
1.875 0.25 2.3
2 0.25 2.3
2.125 0.25 2.3
2.25 0.25 2.3
2.375 0.25 2.3
2.5 0.25 2.3
2.625 0.25 2.3
2.75 0.25 2.3
2.875 0.25 2.3
3 0.25 2.3
3.125 0.25 2.3
3.25 0.25 2.3
3.375 0.25 2.3
3.5 0.25 2.3
3.625 0.25 2.3
3.75 0.25 2.3
3.875 0.25 2.3
4 0.25 2.3
0 0.375 2.3
0.125 0.375 2.3
0.25 0.375 2.3
0.375 0.375 2.3
0.5 0.375 2.3
0.625 0.375 2.3
0.75 0.375 2.3
0.875 0.375 2.3
1 0.375 2.3
1.125 0.375 2.3
1.25 0.375 2.3
1.375 0.375 2.3
1.5 0.375 2.3
1.625 0.375 2.3
1.75 0.375 2.3
1.875 0.375 2.3
2 0.375 2.3
2.125 0.375 2.3
2.25 0.375 2.3
2.375 0.375 2.3
2.5 0.375 2.3
2.625 0.375 2.3
2.75 0.375 2.3
2.875 0.375 2.3
3 0.375 2.3
3.125 0.375 2.3
3.25 0.375 2.3
3.375 0.375 2.3
3.5 0.375 2.3
3.625 0.375 2.3
3.75 0.375 2.3
3.875 0.375 2.3
4 0.375 2.3
0 0.5 2.3
0.125 0.5 2.3
0.25 0.5 2.3
0.375 0.5 2.3
0.5 0.5 2.3
0.625 0.5 2.3
0.75 0.5 2.3
0.875 0.5 2.3
1 0.5 2.3
1.125 0.5 2.3
1.25 0.5 2.3
1.375 0.5 2.3
1.5 0.5 2.3
1.625 0.5 2.3
1.75 0.5 2.3
1.875 0.5 2.3
2 0.5 2.3
2.125 0.5 2.3
2.25 0.5 2.3
2.375 0.5 2.3
2.5 0.5 2.3
2.625 0.5 2.3
2.75 0.5 2.3
2.875 0.5 2.3
3 0.5 2.3
3.125 0.5 2.3
3.25 0.5 2.3
3.375 0.5 2.3
3.5 0.5 2.3
3.625 0.5 2.3
3.75 0.5 2.3
3.875 0.5 2.3
4 0.5 2.3
0 0.625 2.3
0.125 0.625 2.3
0.25 0.625 2.3
0.375 0.625 2.3
0.5 0.625 2.3
0.625 0.625 2.3
0.75 0.625 2.3
0.875 0.625 2.3
1 0.625 2.3
1.125 0.625 2.3
1.25 0.625 2.3
1.375 0.625 2.3
1.5 0.625 2.3
1.625 0.625 2.3
1.75 0.625 2.3
1.875 0.625 2.3
2 0.625 2.3
2.125 0.625 2.3
2.25 0.625 2.3
2.375 0.625 2.3
2.5 0.625 2.3
2.625 0.625 2.3
2.75 0.625 2.3
2.875 0.625 2.3
3 0.625 2.3
3.125 0.625 2.3
3.25 0.625 2.3
3.375 0.625 2.3
3.5 0.625 2.3
3.625 0.625 2.3
3.75 0.625 2.3
3.875 0.625 2.3
4 0.625 2.3
0 0.75 2.3
0.125 0.75 2.3
0.25 0.75 2.3
0.375 0.75 2.3
0.5 0.75 2.3
0.625 0.75 2.3
0.75 0.75 2.3
0.875 0.75 2.3
1 0.75 2.3
1.125 0.75 2.3
1.25 0.75 2.3
1.375 0.75 2.3
1.5 0.75 2.3
1.625 0.75 2.3
1.75 0.75 2.3
1.875 0.75 2.3
2 0.75 2.3
2.125 0.75 2.3
2.25 0.75 2.3
2.375 0.75 2.3
2.5 0.75 2.3
2.625 0.75 2.3
2.75 0.75 2.3
2.875 0.75 2.3
3 0.75 2.3
3.125 0.75 2.3
3.25 0.75 2.3
3.375 0.75 2.3
3.5 0.75 2.3
3.625 0.75 2.3
3.75 0.75 2.3
3.875 0.75 2.3
4 0.75 2.3
0 0.875 2.3
0.125 0.875 2.3
0.25 0.875 2.3
0.375 0.875 2.3
0.5 0.875 2.3
0.625 0.875 2.3
0.75 0.875 2.3
0.875 0.875 2.3
1 0.875 2.3
1.125 0.875 2.3
1.25 0.875 2.3
1.375 0.875 2.3
1.5 0.875 2.3
1.625 0.875 2.3
1.75 0.875 2.3
1.875 0.875 2.3
2 0.875 2.3
2.125 0.875 2.3
2.25 0.875 2.3
2.375 0.875 2.3
2.5 0.875 2.3
2.625 0.875 2.3
2.75 0.875 2.3
2.875 0.875 2.3
3 0.875 2.3
3.125 0.875 2.3
3.25 0.875 2.3
3.375 0.875 2.3
3.5 0.875 2.3
3.625 0.875 2.3
3.75 0.875 2.3
3.875 0.875 2.3
4 0.875 2.3
0 1 2.3
0.125 1 2.3
0.25 1 2.3
0.375 1 2.3
0.5 1 2.3
0.625 1 2.3
0.75 1 2.3
0.875 1 2.3
1 1 2.3
1.125 1 2.3
1.25 1 2.3
1.375 1 2.3
1.5 1 2.3
1.625 1 2.3
1.75 1 2.3
1.875 1 2.3
2 1 2.3
2.125 1 2.3
2.25 1 2.3
2.375 1 2.3
2.5 1 2.3
2.625 1 2.3
2.75 1 2.3
2.875 1 2.3
3 1 2.3
3.125 1 2.3
3.25 1 2.3
3.375 1 2.3
3.5 1 2.3
3.625 1 2.3
3.75 1 2.3
3.875 1 2.3
4 1 2.3
0 0 2.425
0.125 0 2.425
0.25 0 2.425
0.375 0 2.425
0.5 0 2.425
0.625 0 2.425
0.75 0 2.425
0.875 0 2.425
1 0 2.425
1.125 0 2.425
1.25 0 2.425
1.375 0 2.425
1.5 0 2.425
1.625 0 2.425
1.75 0 2.425
1.875 0 2.425
2 0 2.425
2.125 0 2.425
2.25 0 2.425
2.375 0 2.425
2.5 0 2.425
2.625 0 2.425
2.75 0 2.425
2.875 0 2.425
3 0 2.425
3.125 0 2.425
3.25 0 2.425
3.375 0 2.425
3.5 0 2.425
3.625 0 2.425
3.75 0 2.425
3.875 0 2.425
4 0 2.425
0 0.125 2.425
0.125 0.125 2.425
0.25 0.125 2.425
0.375 0.125 2.425
0.5 0.125 2.425
0.625 0.125 2.425
0.75 0.125 2.425
0.875 0.125 2.425
1 0.125 2.425
1.125 0.125 2.425
1.25 0.125 2.425
1.375 0.125 2.425
1.5 0.125 2.425
1.625 0.125 2.425
1.75 0.125 2.425
1.875 0.125 2.425
2 0.125 2.425
2.125 0.125 2.425
2.25 0.125 2.425
2.375 0.125 2.425
2.5 0.125 2.425
2.625 0.125 2.425
2.75 0.125 2.425
2.875 0.125 2.425
3 0.125 2.425
3.125 0.125 2.425
3.25 0.125 2.425
3.375 0.125 2.425
3.5 0.125 2.425
3.625 0.125 2.425
3.75 0.125 2.425
3.875 0.125 2.425
4 0.125 2.425
0 0.25 2.425
0.125 0.25 2.425
0.25 0.25 2.425
0.375 0.25 2.425
0.5 0.25 2.425
0.625 0.25 2.425
0.75 0.25 2.425
0.875 0.25 2.425
1 0.25 2.425
1.125 0.25 2.425
1.25 0.25 2.425
1.375 0.25 2.425
1.5 0.25 2.425
1.625 0.25 2.425
1.75 0.25 2.425
1.875 0.25 2.425
2 0.25 2.425
2.125 0.25 2.425
2.25 0.25 2.425
2.375 0.25 2.425
2.5 0.25 2.425
2.625 0.25 2.425
2.75 0.25 2.425
2.875 0.25 2.425
3 0.25 2.425
3.125 0.25 2.425
3.25 0.25 2.425
3.375 0.25 2.425
3.5 0.25 2.425
3.625 0.25 2.425
3.75 0.25 2.425
3.875 0.25 2.425
4 0.25 2.425
0 0.375 2.425
0.125 0.375 2.425
0.25 0.375 2.425
0.375 0.375 2.425
0.5 0.375 2.425
0.625 0.375 2.425
0.75 0.375 2.425
0.875 0.375 2.425
1 0.375 2.425
1.125 0.375 2.425
1.25 0.375 2.425
1.375 0.375 2.425
1.5 0.375 2.425
1.625 0.375 2.425
1.75 0.375 2.425
1.875 0.375 2.425
2 0.375 2.425
2.125 0.375 2.425
2.25 0.375 2.425
2.375 0.375 2.425
2.5 0.375 2.425
2.625 0.375 2.425
2.75 0.375 2.425
2.875 0.375 2.425
3 0.375 2.425
3.125 0.375 2.425
3.25 0.375 2.425
3.375 0.375 2.425
3.5 0.375 2.425
3.625 0.375 2.425
3.75 0.375 2.425
3.875 0.375 2.425
4 0.375 2.425
0 0.5 2.425
0.125 0.5 2.425
0.25 0.5 2.425
0.375 0.5 2.425
0.5 0.5 2.425
0.625 0.5 2.425
0.75 0.5 2.425
0.875 0.5 2.425
1 0.5 2.425
1.125 0.5 2.425
1.25 0.5 2.425
1.375 0.5 2.425
1.5 0.5 2.425
1.625 0.5 2.425
1.75 0.5 2.425
1.875 0.5 2.425
2 0.5 2.425
2.125 0.5 2.425
2.25 0.5 2.425
2.375 0.5 2.425
2.5 0.5 2.425
2.625 0.5 2.425
2.75 0.5 2.425
2.875 0.5 2.425
3 0.5 2.425
3.125 0.5 2.425
3.25 0.5 2.425
3.375 0.5 2.425
3.5 0.5 2.425
3.625 0.5 2.425
3.75 0.5 2.425
3.875 0.5 2.425
4 0.5 2.425
0 0.625 2.425
0.125 0.625 2.425
0.25 0.625 2.425
0.375 0.625 2.425
0.5 0.625 2.425
0.625 0.625 2.425
0.75 0.625 2.425
0.875 0.625 2.425
1 0.625 2.425
1.125 0.625 2.425
1.25 0.625 2.425
1.375 0.625 2.425
1.5 0.625 2.425
1.625 0.625 2.425
1.75 0.625 2.425
1.875 0.625 2.425
2 0.625 2.425
2.125 0.625 2.425
2.25 0.625 2.425
2.375 0.625 2.425
2.5 0.625 2.425
2.625 0.625 2.425
2.75 0.625 2.425
2.875 0.625 2.425
3 0.625 2.425
3.125 0.625 2.425
3.25 0.625 2.425
3.375 0.625 2.425
3.5 0.625 2.425
3.625 0.625 2.425
3.75 0.625 2.425
3.875 0.625 2.425
4 0.625 2.425
0 0.75 2.425
0.125 0.75 2.425
0.25 0.75 2.425
0.375 0.75 2.425
0.5 0.75 2.425
0.625 0.75 2.425
0.75 0.75 2.425
0.875 0.75 2.425
1 0.75 2.425
1.125 0.75 2.425
1.25 0.75 2.425
1.375 0.75 2.425
1.5 0.75 2.425
1.625 0.75 2.425
1.75 0.75 2.425
1.875 0.75 2.425
2 0.75 2.425
2.125 0.75 2.425
2.25 0.75 2.425
2.375 0.75 2.425
2.5 0.75 2.425
2.625 0.75 2.425
2.75 0.75 2.425
2.875 0.75 2.425
3 0.75 2.425
3.125 0.75 2.425
3.25 0.75 2.425
3.375 0.75 2.425
3.5 0.75 2.425
3.625 0.75 2.425
3.75 0.75 2.425
3.875 0.75 2.425
4 0.75 2.425
0 0.875 2.425
0.125 0.875 2.425
0.25 0.875 2.425
0.375 0.875 2.425
0.5 0.875 2.425
0.625 0.875 2.425
0.75 0.875 2.425
0.875 0.875 2.425
1 0.875 2.425
1.125 0.875 2.425
1.25 0.875 2.425
1.375 0.875 2.425
1.5 0.875 2.425
1.625 0.875 2.425
1.75 0.875 2.425
1.875 0.875 2.425
2 0.875 2.425
2.125 0.875 2.425
2.25 0.875 2.425
2.375 0.875 2.425
2.5 0.875 2.425
2.625 0.875 2.425
2.75 0.875 2.425
2.875 0.875 2.425
3 0.875 2.425
3.125 0.875 2.425
3.25 0.875 2.425
3.375 0.875 2.425
3.5 0.875 2.425
3.625 0.875 2.425
3.75 0.875 2.425
3.875 0.875 2.425
4 0.875 2.425
0 1 2.425
0.125 1 2.425
0.25 1 2.425
0.375 1 2.425
0.5 1 2.425
0.625 1 2.425
0.75 1 2.425
0.875 1 2.425
1 1 2.425
1.125 1 2.425
1.25 1 2.425
1.375 1 2.425
1.5 1 2.425
1.625 1 2.425
1.75 1 2.425
1.875 1 2.425
2 1 2.425
2.125 1 2.425
2.25 1 2.425
2.375 1 2.425
2.5 1 2.425
2.625 1 2.425
2.75 1 2.425
2.875 1 2.425
3 1 2.425
3.125 1 2.425
3.25 1 2.425
3.375 1 2.425
3.5 1 2.425
3.625 1 2.425
3.75 1 2.425
3.875 1 2.425
4 1 2.425
0 0 2.55
0.125 0 2.55
0.25 0 2.55
0.375 0 2.55
0.5 0 2.55
0.625 0 2.55
0.75 0 2.55
0.875 0 2.55
1 0 2.55
1.125 0 2.55
1.25 0 2.55
1.375 0 2.55
1.5 0 2.55
1.625 0 2.55
1.75 0 2.55
1.875 0 2.55
2 0 2.55
2.125 0 2.55
2.25 0 2.55
2.375 0 2.55
2.5 0 2.55
2.625 0 2.55
2.75 0 2.55
2.875 0 2.55
3 0 2.55
3.125 0 2.55
3.25 0 2.55
3.375 0 2.55
3.5 0 2.55
3.625 0 2.55
3.75 0 2.55
3.875 0 2.55
4 0 2.55
0 0.125 2.55
0.125 0.125 2.55
0.25 0.125 2.55
0.375 0.125 2.55
0.5 0.125 2.55
0.625 0.125 2.55
0.75 0.125 2.55
0.875 0.125 2.55
1 0.125 2.55
1.125 0.125 2.55
1.25 0.125 2.55
1.375 0.125 2.55
1.5 0.125 2.55
1.625 0.125 2.55
1.75 0.125 2.55
1.875 0.125 2.55
2 0.125 2.55
2.125 0.125 2.55
2.25 0.125 2.55
2.375 0.125 2.55
2.5 0.125 2.55
2.625 0.125 2.55
2.75 0.125 2.55
2.875 0.125 2.55
3 0.125 2.55
3.125 0.125 2.55
3.25 0.125 2.55
3.375 0.125 2.55
3.5 0.125 2.55
3.625 0.125 2.55
3.75 0.125 2.55
3.875 0.125 2.55
4 0.125 2.55
0 0.25 2.55
0.125 0.25 2.55
0.25 0.25 2.55
0.375 0.25 2.55
0.5 0.25 2.55
0.625 0.25 2.55
0.75 0.25 2.55
0.875 0.25 2.55
1 0.25 2.55
1.125 0.25 2.55
1.25 0.25 2.55
1.375 0.25 2.55
1.5 0.25 2.55
1.625 0.25 2.55
1.75 0.25 2.55
1.875 0.25 2.55
2 0.25 2.55
2.125 0.25 2.55
2.25 0.25 2.55
2.375 0.25 2.55
2.5 0.25 2.55
2.625 0.25 2.55
[...]
POINT_DATA 2673
SCALARS weights float 1
LOOKUP_TABLE default
0.244141 0.488281 0.488281 0.488281 0.488281 0.488281 0.488281 0.488281 0.488281 0.488281 0.488281 0.488281 0.488281 0.488281 0.488281 0.488281 0.488281 0.488281 0.488281 0.488281 0.488281 0.488281 0.488281 0.488281 0.488281 0.488282 0.488281 0.488281 0.488281 0.488281 0.488281 0.488281 0.244141 0.488281 0.976563 0.976562 0.976562 0.976562 0.976562 0.976563 0.976563 0.976562 0.976562 0.976563 0.976563 0.976563 0.976563 0.976562 0.976562 0.976562 0.976562 0.976562 0.976562 0.976563 0.976563 0.976563 0.976562 0.976563 0.976563 0.976562 0.976563 0.976563 0.976562 0.976562 0.976562 0.488281 0.488281 0.976562 0.976562 0.976562 0.976562 0.976562 0.976563 0.976563 0.976562 0.976562 0.976563 0.976562 0.976563 0.976563 0.976562 0.976562 0.976562 0.976562 0.976562 0.976562 0.976563 0.976563 0.976562 0.976562 0.976563 0.976563 0.976562 0.976562 0.976562 0.976562 0.976562 0.976562 0.488281 0.488281 0.976562 0.976562 0.976562 0.976562 0.976562 0.976563 0.976562 0.976562 0.976562 0.976563 0.976562 0.976562 0.976563 0.976562 0.976562 0.976562 0.976562 0.976562 0.976562 0.976563 0.976563 0.976562 0.976562 0.976563 0.976563 0.976562 0.976562 0.976562 0.976562 0.976562 0.976562 0.488281 0.488281 0.976562 0.976562 0.976562 0.976562 0.976562 0.976563 0.976562 0.976562 0.976562 0.976563 0.976562 0.976563 0.976563 0.976562 0.976562 0.976562 0.976562 0.976562 0.976562 0.976563 0.976563 0.976562 0.976562 0.976563 0.976563 0.976562 0.976562 0.976562 0.976562 0.976562 0.976562 0.488281 0.488281 0.976562 0.976562 0.976562 0.976562 0.976562 0.976562 0.976562 0.976562 0.976562 0.976562 0.976562 0.976562 0.976563 0.976562 0.976562 0.976562 0.976562 0.976562 0.976562 0.976562 0.976563 0.976562 0.976562 0.976563 0.976563 0.976562 0.976562 0.976562 0.976562 0.976562 0.976562 0.488281 0.488281 0.976562 0.976562 0.976562 0.976562 0.976562 0.976563 0.976563 0.976562 0.976562 0.976563 0.976562 0.976563 0.976563 0.976562 0.976562 0.976562 0.976562 0.976562 0.976562 0.976563 0.976563 0.976563 0.976562 0.976563 0.976563 0.976562 0.976562 0.976562 0.976562 0.976562 0.976562 0.488281 0.488281 0.976562 0.976562 0.976562 0.976562 0.976562 0.976563 0.976562 0.976562 0.976562 0.976563 0.976562 0.976563 0.976563 0.976562 0.976562 0.976562 0.976562 0.976562 0.976562 0.976563 0.976563 0.976563 0.976562 0.976563 0.976563 0.976562 0.976562 0.976562 0.976562 0.976562 0.976562 0.488281 0.244141 0.488281 0.488281 0.488281 0.488281 0.488281 0.488281 0.488281 0.488281 0.488281 0.488281 0.488281 0.488281 0.488281 0.488281 0.488281 0.488281 0.488281 0.488281 0.488281 0.488281 0.488281 0.488281 0.488281 0.488281 0.488281 0.488281 0.488281 0.488281 0.488281 0.488281 0.488281 0.244141 0.488281 0.976563 0.976563 0.976563 0.976563 0.976563 0.976563 0.976563 0.976563 0.976563 0.976563 0.976563 0.976563 0.976563 0.976563 0.976563 0.976563 0.976562 0.976562 0.976563 0.976563 0.976563 0.976563 0.976563 0.976563 0.976563 0.976562 0.976563 0.976563 0.976562 0.976563 0.976563 0.488281 0.976563 1.95313 1.95313 1.95313 1.95313 1.95313 1.95313 1.95313 1.95312 1.95313 1.95313 1.95313 1.95313 1.95313 1.95313 1.95313 1.95313 1.95312 1.95312 1.95313 1.95313 1.95313 1.95313 1.95313 1.95313 1.95313 1.95312 1.95313 1.95313 1.95312 1.95313 1.95313 0.976563 0.976563 1.95313 1.95313 1.95313 1.95313 1.95313 1.95313 1.95313 1.95312 1.95313 1.95313 1.95313 1.95313 1.95313 1.95312 1.95313 1.95313 1.95312 1.95312 1.95313 1.95313 1.95313 1.95313 1.95312 1.95313 1.95313 1.95312 1.95313 1.95313 1.95312 1.95313 1.95313 0.976563 0.976563 1.95313 1.95313 1.95313 1.95313 1.95313 1.95313 1.95313 1.95312 1.95313 1.95313 1.95313 1.95313 1.95313 1.95312 1.95313 1.95313 1.95312 1.95312 1.95313 1.95313 1.95313 1.95313 1.95312 1.95313 1.95313 1.95312 1.95313 1.95313 1.95312 1.95313 1.95313 0.976563 0.976563 1.95313 1.95313 1.95313 1.95313 1.95313 1.95313 1.95313 1.95312 1.95313 1.95313 1.95313 1.95313 1.95313 1.95313 1.95313 1.95313 1.95312 1.95312 1.95313 1.95313 1.95313 1.95313 1.95313 1.95313 1.95313 1.95312 1.95313 1.95313 1.95312 1.95313 1.95313 0.976563 0.976563 1.95313 1.95313 1.95313 1.95313 1.95313 1.95313 1.95313 1.95312 1.95312 1.95313 1.95313 1.95313 1.95313 1.95312 1.95312 1.95313 1.95312 1.95312 1.95312 1.95313 1.95313 1.95313 1.95312 1.95313 1.95313 1.95312 1.95313 1.95313 1.95312 1.95313 1.95313 0.976563 0.976563 1.95313 1.95313 1.95313 1.95313 1.95313 1.95313 1.95313 1.95313 1.95313 1.95313 1.95313 1.95313 1.95313 1.95313 1.95313 1.95313 1.95312 1.95312 1.95313 1.95313 1.95313 1.95313 1.95313 1.95313 1.95313 1.95312 1.95313 1.95313 1.95312 1.95313 1.95313 0.976563 0.976563 1.95313 1.95313 1.95313 1.95313 1.95313 1.95313 1.95313 1.95312 1.95313 1.95313 1.95313 1.95313 1.95313 1.95312 1.95312 1.95313 1.95312 1.95312 1.95313 1.95313 1.95313 1.95313 1.95312 1.95313 1.95313 1.95312 1.95313 1.95313 1.95312 1.95313 1.95313 0.976563 0.488281 0.976563 0.976563 0.976563 0.976563 0.976563 0.976563 0.976563 0.976562 0.976562 0.976563 0.976562 0.976563 0.976563 0.976562 0.976562 0.976562 0.976562 0.976562 0.976562 0.976563 0.976563 0.976563 0.976562 0.976563 0.976563 0.976562 0.976562 0.976562 0.976562 0.976562 0.976562 0.488281 0.488281 0.976563 0.976563 0.976563 0.976563 0.976563 0.976563 0.976563 0.976562 0.976563 0.976563 0.976563 0.976563 0.976563 0.976563 0.976563 0.976563 0.976562 0.976562 0.976563 0.976563 0.976563 0.976563 0.976563 0.976563 0.976563 0.976562 0.976563 0.976563 0.976562 0.976563 0.976563 0.488281 0.976563 1.95313 1.95313 1.95313 1.95313 1.95313 1.95313 1.95313 1.95312 1.95313 1.95313 1.95313 1.95313 1.95313 1.95313 1.95313 1.95313 1.95312 1.95312 1.95313 1.95313 1.95313 1.95313 1.95313 1.95313 1.95313 1.95312 1.95313 1.95313 1.95312 1.95313 1.95313 0.976563 0.976563 1.95313 1.95313 1.95313 1.95313 1.95313 1.95313 1.95313 1.95312 1.95313 1.95313 1.95313 1.95313 1.95313 1.95312 1.95313 1.95313 1.95312 1.95312 1.95313 1.95313 1.95313 1.95313 1.95312 1.95313 1.95313 1.95312 1.95313 1.95313 1.95312 1.95313 1.95313 0.976563 0.976563 1.95313 1.95313 1.95313 1.95313 1.95313 1.95313 1.95313 1.95312 1.95312 1.95313 1.95312 1.95313 1.95313 1.95312 1.95312 1.95313 1.95312 1.95312 1.95313 1.95313 1.95313 1.95313 1.95312 1.95313 1.95313 1.95312 1.95313 1.95313 1.95312 1.95313 1.95313 0.976563 0.976563 1.95313 1.95313 1.95313 1.95313 1.95313 1.95313 1.95313 1.95312 1.95313 1.95313 1.95313 1.95313 1.95313 1.95313 1.95313 1.95313 1.95312 1.95312 1.95313 1.95313 1.95313 1.95313 1.95313 1.95313 1.95313 1.95312 1.95313 1.95313 1.95312 1.95313 1.95313 0.976563 0.976563 1.95313 1.95313 1.95313 1.95313 1.95313 1.95313 1.95313 1.95312 1.95312 1.95313 1.95312 1.95313 1.95313 1.95312 1.95312 1.95313 1.95312 1.95312 1.95313 1.95313 1.95313 1.95313 1.95312 1.95313 1.95313 1.95312 1.95313 1.95313 1.95312 1.95313 1.95313 0.976563 0.976563 1.95313 1.95313 1.95313 1.95313 1.95313 1.95313 1.95313 1.95312 1.95313 1.95313 1.95313 1.95313 1.95313 1.95313 1.95312 1.95313 1.95312 1.95312 1.95313 1.95313 1.95313 1.95313 1.95313 1.95313 1.95313 1.95312 1.95313 1.95313 1.95312 1.95313 1.95313 0.976563 0.976563 1.95313 1.95313 1.95313 1.95313 1.95313 1.95313 1.95313 1.95312 1.95312 1.95313 1.95313 1.95313 1.95313 1.95313 1.95312 1.95313 1.95312 1.95312 1.95313 1.95313 1.95313 1.95313 1.95313 1.95313 1.95313 1.95312 1.95313 1.95313 1.95312 1.95313 1.95313 0.976563 0.488281 0.976562 0.976562 0.976563 0.976563 0.976562 0.976563 0.976562 0.976562 0.976562 0.976563 0.976562 0.976563 0.976563 0.976562 0.976562 0.976562 0.976562 0.976562 0.976562 0.976563 0.976563 0.976563 0.976562 0.976563 0.976563 0.976562 0.976562 0.976562 0.976562 0.976562 0.976562 0.488281 0.488281 0.976562 0.976562 0.976562 0.976562 0.976562 0.976563 0.976562 0.976562 0.976562 0.976563 0.976562 0.976563 0.976563 0.976562 0.976562 0.976562 0.976562 0.976562 0.976562 0.976563 0.976563 0.976562 0.976562 0.976563 0.976563 0.976562 0.976562 0.976562 0.976562 0.976562 0.976562 0.488281 0.976562 1.95312 1.95312 1.95312 1.95312 1.95312 1.95313 1.95312 1.95312 1.95312 1.95313 1.95312 1.95313 1.95313 1.95312 1.95312 1.95312 1.95312 1.95312 1.95312 1.95313 1.95313 1.95312 1.95312 1.95313 1.95313 1.95312 1.95313 1.95313 1.95312 1.95312 1.95312 0.976563 0.976562 1.95312 1.95312 1.95312 1.95312 1.95312 1.95313 1.95312 1.95312 1.95312 1.95313 1.95312 1.95312 1.95313 1.95312 1.95312 1.95312 1.95312 1.95312 1.95312 1.95313 1.95313 1.95312 1.95312 1.95313 1.95313 1.95312 1.95312 1.95312 1.95312 1.95312 1.95312 0.976563 0.976562 1.95312 1.95312 1.95312 1.95312 1.95312 1.95312 1.95312 1.95312 1.95312 1.95312 1.95312 1.95312 1.95313 1.95312 1.95312 1.95312 1.95312 1.95312 1.95312 1.95312 1.95313 1.95312 1.95312 1.95313 1.95313 1.95312 1.95312 1.95312 1.95312 1.95312 1.95312 0.976563 0.976562 1.95312 1.95312 1.95312 1.95312 1.95312 1.95312 1.95312 1.95312 1.95312 1.95312 1.95312 1.95312 1.95313 1.95312 1.95312 1.95312 1.95312 1.95312 1.95312 1.95312 1.95313 1.95312 1.95312 1.95313 1.95313 1.95312 1.95312 1.95312 1.95312 1.95312 1.95312 0.976563 0.976562 1.95312 1.95312 1.95312 1.95312 1.95312 1.95312 1.95312 1.95312 1.95312 1.95312 1.95312 1.95312 1.95313 1.95312 1.95312 1.95312 1.95312 1.95312 1.95312 1.95312 1.95313 1.95312 1.95312 1.95313 1.95313 1.95312 1.95312 1.95312 1.95312 1.95312 1.95312 0.976563 0.976562 1.95312 1.95312 1.95312 1.95312 1.95312 1.95313 1.95312 1.95312 1.95312 1.95313 1.95312 1.95313 1.95313 1.95312 1.95312 1.95312 1.95312 1.95312 1.95312 1.95313 1.95313 1.95312 1.95312 1.95313 1.95313 1.95312 1.95312 1.95312 1.95312 1.95312 1.95312 0.976563 0.976562 1.95312 1.95312 1.95312 1.95312 1.95312 1.95313 1.95312 1.95312 1.95312 1.95313 1.95312 1.95313 1.95313 1.95312 1.95312 1.95312 1.95312 1.95312 1.95312 1.95313 1.95313 1.95312 1.95312 1.95313 1.95313 1.95312 1.95312 1.95312 1.95312 1.95312 1.95312 0.976563 0.488281 0.976562 0.976562 0.976562 0.976562 0.976562 0.976562 0.976562 0.976562 0.976562 0.976562 0.976562 0.976562 0.976563 0.976562 0.976562 0.976562 0.976562 0.976562 0.976562 0.976562 0.976562 0.976562 0.976562 0.976562 0.976563 0.976562 0.976562 0.976562 0.976562 0.976562 0.976562 0.488281 0.488281 0.976562 0.976562 0.976562 0.976562 0.976562 0.976562 0.976562 0.976562 0.976562 0.976562 0.976562 0.976562 0.976563 0.976562 0.976562 0.976562 0.976562 0.976562 0.976562 0.976562 0.976562 0.976562 0.976562 0.976563 0.976563 0.976562 0.976562 0.976562 0.976562 0.976562 0.976562 0.488281 0.976562 1.95312 1.95312 1.95312 1.95312 1.95312 1.95312 1.95312 1.95312 1.95312 1.95312 1.95312 1.95312 1.95313 1.95312 1.95312 1.95312 1.95312 1.95312 1.95312 1.95312 1.95312 1.95312 1.95312 1.95312 1.95313 1.95312 1.95312 1.95312 1.95312 1.95312 1.95312 0.976562 0.976562 1.95312 1.95312 1.95312 1.95312 1.95312 1.95312 1.95312 1.95312 1.95312 1.95312 1.95312 1.95312 1.95312 1.95312 1.95312 1.95312 1.95312 1.95312 1.95312 1.95312 1.95312 1.95312 1.95312 1.95312 1.95313 1.95312 1.95312 1.95312 1.95312 1.95312 1.95312 0.976562 0.976562 1.95312 1.95312 1.95312 1.95312 1.95312 1.95312 1.95312 1.95312 1.95312 1.95312 1.95312 1.95312 1.95312 1.95312 1.95312 1.95312 1.95312 1.95312 1.95312 1.95312 1.95312 1.95312 1.95312 1.95312 1.95313 1.95312 1.95312 1.95312 1.95312 1.95312 1.95312 0.976562 0.976562 1.95312 1.95312 1.95312 1.95312 1.95312 1.95312 1.95312 1.95312 1.95312 1.95312 1.95312 1.95312 1.95312 1.95312 1.95312 1.95312 1.95312 1.95312 1.95312 1.95312 1.95312 1.95312 1.95312 1.95312 1.95313 1.95312 1.95312 1.95312 1.95312 1.95312 1.95312 0.976562 0.976562 1.95312 1.95312 1.95312 1.95312 1.95312 1.95312 1.95312 1.95312 1.95312 1.95312 1.95312 1.95312 1.95312 1.95312 1.95312 1.95312 1.95312 1.95312 1.95312 1.95312 1.95312 1.95312 1.95312 1.95312 1.95313 1.95312 1.95312 1.95312 1.95312 1.95312 1.95312 0.976562 0.976562 1.95312 1.95312 1.95312 1.95312 1.95312 1.95312 1.95312 1.95312 1.95312 1.95312 1.95312 1.95312 1.95313 1.95312 1.95312 1.95312 1.95312 1.95312 1.95312 1.95312 1.95312 1.95312 1.95312 1.95312 1.95313 1.95312 1.95312 1.95312 1.95312 1.95312 1.95312 0.976562 0.976562 1.95312 1.95312 1.95312 1.95312 1.95312 1.95312 1.95312 1.95312 1.95312 1.95312 1.95312 1.95312 1.95313 1.95312 1.95312 1.95312 1.95312 1.95312 1.95312 1.95312 1.95312 1.95312 1.95312 1.95312 1.95313 1.95312 1.95312 1.95312 1.95312 1.95312 1.95312 0.976562 0.488281 0.976562 0.976562 0.976562 0.976562 0.976562 0.976562 0.976562 0.976562 0.976562 0.976562 0.976562 0.976562 0.976562 0.976562 0.976562 0.976562 0.976562 0.976562 0.976562 0.976562 0.976562 0.976562 0.976562 0.976562 0.976562 0.976561 0.976562 0.976562 0.976561 0.976562 0.976562 0.488281 0.488281 0.976562 0.976562 0.976562 0.976562 0.976562 0.976562 0.976562 0.976562 0.976562 0.976562 0.976562 0.976562 0.976562 0.976562 0.976562 0.976562 0.976561 0.976561 0.976562 0.976562 0.976562 0.976562 0.976562 0.976562 0.976562 0.976561 0.976562 0.976562 0.976561 0.976562 0.976562 0.488281 0.976562 1.95312 1.95312 1.95312 1.95312 1.95312 1.95312 1.95312 1.95312 1.95312 1.95312 1.95312 1.95312 1.95312 1.95312 1.95312 1.95312 1.95312 1.95312 1.95312 1.95312 1.95312 1.95312 1.95312 1.95312 1.95312 1.95312 1.95312 1.95312 1.95312 1.95312 1.95312 0.976562 0.976562 1.95312 1.95312 1.95312 1.95312 1.95312 1.95312 1.95312 1.95312 1.95312 1.95312 1.95312 1.95312 1.95312 1.95312 1.95312 1.95312 1.95312 1.95312 1.95312 1.95312 1.95312 1.95312 1.95312 1.95312 1.95312 1.95312 1.95312 1.95312 1.95312 1.95312 1.95312 0.976562 0.976562 1.95312 1.95312 1.95312 1.95312 1.95312 1.95312 1.95312 1.95312 1.95312 1.95312 1.95312 1.95312 1.95312 1.95312 1.95312 1.95312 1.95312 1.95312 1.95312 1.95312 1.95312 1.95312 1.95312 1.95312 1.95312 1.95312 1.95312 1.95312 1.95312 1.95312 1.95312 0.976562 0.976562 1.95312 1.95312 1.95312 1.95312 1.95312 1.95312 1.95312 1.95312 1.95312 1.95312 1.95312 1.95312 1.95312 1.95312 1.95312 1.95312 1.95312 1.95312 1.95312 1.95312 1.95312 1.95312 1.95312 1.95312 1.95312 1.95312 1.95312 1.95312 1.95312 1.95312 1.95312 0.976562 0.976562 1.95312 1.95312 1.95312 1.95312 1.95312 1.95312 1.95312 1.95312 1.95312 1.95312 1.95312 1.95312 1.95312 1.95312 1.95312 1.95312 1.95312 1.95312 1.95312 1.95312 1.95312 1.95312 1.95312 1.95312 1.95312 1.95312 1.95312 1.95312 1.95312 1.95312 1.95312 0.976562 0.976562 1.95312 1.95312 1.95312 1.95312 1.95312 1.95312 1.95312 1.95312 1.95312 1.95312 1.95312 1.95312 1.95312 1.95312 1.95312 1.95312 1.95312 1.95312 1.95312 1.95312 1.95312 1.95312 1.95312 1.95312 1.95312 1.95312 1.95312 1.95312 1.95312 1.95312 1.95312 0.976562 0.976562 1.95312 1.95312 1.95312 1.95312 1.95312 1.95312 1.95312 1.95312 1.95312 1.95312 1.95312 1.95312 1.95312 1.95312 1.95312 1.95312 1.95312 1.95312 1.95312 1.95312 1.95312 1.95312 1.95312 1.95312 1.95312 1.95312 1.95312 1.95312 1.95312 1.95312 1.95312 0.976562 0.488281 0.976562 0.976562 0.976562 0.976562 0.976562 0.976562 0.976562 0.976561 0.976562 0.976562 0.976562 0.976562 0.976562 0.976562 0.976562 0.976562 0.976561 0.976561 0.976562 0.976562 0.976562 0.976562 0.976562 0.976562 0.976562 0.976561 0.976562 0.976562 0.976561 0.976562 0.976562 0.488281 0.488281 0.976562 0.976562 0.976562 0.976562 0.976562 0.976562 0.976562 0.976562 0.976562 0.976562 0.976562 0.976562 0.976563 0.976562 0.976562 0.976562 0.976562 0.976562 0.976562 0.976562 0.976563 0.976562 0.976562 0.976563 0.976563 0.976562 0.976562 0.976562 0.976562 0.976562 0.976562 0.488281 0.976562 1.95312 1.95312 1.95312 1.95312 1.95312 1.95312 1.95312 1.95312 1.95312 1.95312 1.95312 1.95313 1.95313 1.95312 1.95312 1.95312 1.95312 1.95312 1.95312 1.95312 1.95313 1.95312 1.95312 1.95313 1.95313 1.95312 1.95312 1.95312 1.95312 1.95312 1.95312 0.976563 0.976562 1.95312 1.95312 1.95312 1.95312 1.95312 1.95312 1.95312 1.95312 1.95312 1.95312 1.95312 1.95312 1.95313 1.95312 1.95312 1.95312 1.95312 1.95312 1.95312 1.95312 1.95312 1.95312 1.95312 1.95313 1.95313 1.95312 1.95312 1.95312 1.95312 1.95312 1.95312 0.976563 0.976562 1.95312 1.95312 1.95312 1.95312 1.95312 1.95312 1.95312 1.95312 1.95312 1.95312 1.95312 1.95312 1.95313 1.95312 1.95312 1.95312 1.95312 1.95312 1.95312 1.95312 1.95312 1.95312 1.95312 1.95313 1.95313 1.95312 1.95312 1.95312 1.95312 1.95312 1.95312 0.976563 0.976562 1.95312 1.95312 1.95312 1.95312 1.95312 1.95312 1.95312 1.95312 1.95312 1.95312 1.95312 1.95312 1.95313 1.95312 1.95312 1.95312 1.95312 1.95312 1.95312 1.95312 1.95312 1.95312 1.95312 1.95313 1.95313 1.95312 1.95312 1.95312 1.95312 1.95312 1.95312 0.976563 0.976562 1.95312 1.95312 1.95312 1.95312 1.95312 1.95312 1.95312 1.95312 1.95312 1.95312 1.95312 1.95312 1.95312 1.95312 1.95312 1.95312 1.95312 1.95312 1.95312 1.95312 1.95312 1.95312 1.95312 1.95313 1.95313 1.95312 1.95312 1.95312 1.95312 1.95312 1.95312 0.976562 0.976562 1.95312 1.95312 1.95312 1.95312 1.95312 1.95312 1.95312 1.95312 1.95312 1.95312 1.95312 1.95312 1.95313 1.95312 1.95312 1.95312 1.95312 1.95312 1.95312 1.95312 1.95312 1.95312 1.95312 1.95313 1.95313 1.95312 1.95312 1.95312 1.95312 1.95312 1.95312 0.976563 0.976562 1.95312 1.95312 1.95312 1.95312 1.95312 1.95313 1.95312 1.95312 1.95312 1.95312 1.95312 1.95312 1.95313 1.95312 1.95312 1.95312 1.95312 1.95312 1.95312 1.95312 1.95312 1.95312 1.95312 1.95313 1.95313 1.95312 1.95312 1.95312 1.95312 1.95312 1.95312 0.976563 0.488281 0.976562 0.976562 0.976562 0.976562 0.976562 0.976562 0.976562 0.976562 0.976562 0.976562 0.976562 0.976562 0.976562 0.976562 0.976562 0.976562 0.976562 0.976562 0.976562 0.976562 0.976562 0.976562 0.976562 0.976562 0.976563 0.976561 0.976562 0.976562 0.976561 0.976562 0.976562 0.488281 0.488281 0.976562 0.976562 0.976562 0.976562 0.976562 0.976563 0.976563 0.976562 0.976562 0.976563 0.976562 0.976562 0.976563 0.976562 0.976562 0.976562 0.976562 0.976562 0.976562 0.976563 0.976563 0.976562 0.976562 0.976563 0.976563 0.976562 0.976562 0.976562 0.976562 0.976562 0.976562 0.488281 0.976562 1.95312 1.95312 1.95312 1.95312 1.95312 1.95313 1.95312 1.95312 1.95312 1.95313 1.95312 1.95313 1.95313 1.95312 1.95312 1.95312 1.95312 1.95312 1.95312 1.95313 1.95313 1.95312 1.95312 1.95313 1.95313 1.95312 1.95312 1.95312 1.95312 1.95312 1.95312 0.976563 0.976562 1.95312 1.95312 1.95312 1.95312 1.95312 1.95313 1.95312 1.95312 1.95312 1.95313 1.95312 1.95313 1.95313 1.95312 1.95312 1.95312 1.95312 1.95312 1.95312 1.95313 1.95313 1.95312 1.95312 1.95313 1.95313 1.95312 1.95312 1.95312 1.95312 1.95312 1.95312 0.976563 0.976562 1.95312 1.95312 1.95312 1.95312 1.95312 1.95313 1.95312 1.95312 1.95312 1.95312 1.95312 1.95313 1.95313 1.95312 1.95312 1.95312 1.95312 1.95312 1.95312 1.95313 1.95313 1.95312 1.95312 1.95313 1.95313 1.95312 1.95312 1.95312 1.95312 1.95312 1.95312 0.976563 0.976562 1.95312 1.95312 1.95312 1.95312 1.95312 1.95313 1.95312 1.95312 1.95312 1.95312 1.95312 1.95313 1.95313 1.95312 1.95312 1.95312 1.95312 1.95312 1.95312 1.95313 1.95313 1.95312 1.95312 1.95313 1.95313 1.95312 1.95312 1.95312 1.95312 1.95312 1.95312 0.976563 0.976562 1.95312 1.95312 1.95312 1.95312 1.95312 1.95313 1.95312 1.95312 1.95312 1.95312 1.95312 1.95312 1.95313 1.95312 1.95312 1.95312 1.95312 1.95312 1.95312 1.95312 1.95313 1.95312 1.95312 1.95313 1.95313 1.95312 1.95312 1.95312 1.95312 1.95312 1.95312 0.976563 0.976562 1.95312 1.95312 1.95312 1.95312 1.95312 1.95313 1.95312 1.95312 1.95312 1.95313 1.95312 1.95313 1.95313 1.95312 1.95312 1.95312 1.95312 1.95312 1.95312 1.95313 1.95313 1.95312 1.95312 1.95313 1.95313 1.95312 1.95312 1.95312 1.95312 1.95312 1.95312 0.976563 0.976562 1.95312 1.95312 1.95312 1.95312 1.95312 1.95313 1.95312 1.95312 1.95312 1.95313 1.95312 1.95313 1.95313 1.95312 1.95312 1.95312 1.95312 1.95312 1.95312 1.95313 1.95313 1.95312 1.95312 1.95313 1.95313 1.95312 1.95312 1.95312 1.95312 1.95312 1.95312 0.976563 0.488281 0.976562 0.976562 0.976562 0.976562 0.976562 0.976562 0.976562 0.976562 0.976562 0.976562 0.976562 0.976562 0.976563 0.976562 0.976562 0.976562 0.976562 0.976562 0.976562 0.976562 0.976562 0.976562 0.976562 0.976563 0.976563 0.976562 0.976562 0.976562 0.976562 0.976562 0.976562 0.488281 0.24414 0.488281 0.488281 0.488281 0.488281 0.488281 0.488281 0.488281 0.4