# vtk DataFile Version 5.1
vtk output
ASCII

DATASET UNSTRUCTURED_GRID
POINTS 18785 float
0 0 0.7
0.125 0 0.7
0.25 0 0.7
0.375 0 0.7
0.5 0 0.7
0.625 0 0.7
0.75 0 0.7
0.875 0 0.7
1 0 0.7
1.125 0 0.7
1.25 0 0.7
1.375 0 0.7
1.5 0 0.7
1.625 0 0.7
1.75 0 0.7
1.875 0 0.7
2 0 0.7
2.125 0 0.7
2.25 0 0.7
2.375 0 0.7
2.5 0 0.7
2.625 0 0.7
2.75 0 0.7
2.875 0 0.7
3 0 0.7
3.125 0 0.7
3.25 0 0.7
3.375 0 0.7
3.5 0 0.7
3.625 0 0.7
3.75 0 0.7
3.875 0 0.7
4 0 0.7
0 0.125 0.7
0.125 0.125 0.7
0.25 0.125 0.7
0.375 0.125 0.7
0.5 0.125 0.7
0.625 0.125 0.7
0.75 0.125 0.7
0.875 0.125 0.7
1 0.125 0.7
1.125 0.125 0.7
1.25 0.125 0.7
1.375 0.125 0.7
1.5 0.125 0.7
1.625 0.125 0.7
1.75 0.125 0.7
1.875 0.125 0.7
2 0.125 0.7
2.125 0.125 0.7
2.25 0.125 0.7
2.375 0.125 0.7
2.5 0.125 0.7
2.625 0.125 0.7
2.75 0.125 0.7
2.875 0.125 0.7
3 0.125 0.7
3.125 0.125 0.7
3.25 0.125 0.7
3.375 0.125 0.7
3.5 0.125 0.7
3.625 0.125 0.7
3.75 0.125 0.7
3.875 0.125 0.7
4 0.125 0.7
0 0.25 0.7
0.125 0.25 0.7
0.25 0.25 0.7
0.375 0.25 0.7
0.5 0.25 0.7
0.625 0.25 0.7
0.75 0.25 0.7
0.875 0.25 0.7
1 0.25 0.7
1.125 0.25 0.7
1.25 0.25 0.7
1.375 0.25 0.7
1.5 0.25 0.7
1.625 0.25 0.7
1.75 0.25 0.7
1.875 0.25 0.7
2 0.25 0.7
2.125 0.25 0.7
2.25 0.25 0.7
2.375 0.25 0.7
2.5 0.25 0.7
2.625 0.25 0.7
2.75 0.25 0.7
2.875 0.25 0.7
3 0.25 0.7
3.125 0.25 0.7
3.25 0.25 0.7
3.375 0.25 0.7
3.5 0.25 0.7
3.625 0.25 0.7
3.75 0.25 0.7
3.875 0.25 0.7
4 0.25 0.7
0 0.375 0.7
0.125 0.375 0.7
0.25 0.375 0.7
0.375 0.375 0.7
0.5 0.375 0.7
0.625 0.375 0.7
0.75 0.375 0.7
0.875 0.375 0.7
1 0.375 0.7
1.125 0.375 0.7
1.25 0.375 0.7
1.375 0.375 0.7
1.5 0.375 0.7
1.625 0.375 0.7
1.75 0.375 0.7
1.875 0.375 0.7
2 0.375 0.7
2.125 0.375 0.7
2.25 0.375 0.7
2.375 0.375 0.7
2.5 0.375 0.7
2.625 0.375 0.7
2.75 0.375 0.7
2.875 0.375 0.7
3 0.375 0.7
3.125 0.375 0.7
3.25 0.375 0.7
3.375 0.375 0.7
3.5 0.375 0.7
3.625 0.375 0.7
3.75 0.375 0.7
3.875 0.375 0.7
4 0.375 0.7
0 0.5 0.7
0.125 0.5 0.7
0.25 0.5 0.7
0.375 0.5 0.7
0.5 0.5 0.7
0.625 0.5 0.7
0.75 0.5 0.7
0.875 0.5 0.7
1 0.5 0.7
1.125 0.5 0.7
1.25 0.5 0.7
1.375 0.5 0.7
1.5 0.5 0.7
1.625 0.5 0.7
1.75 0.5 0.7
1.875 0.5 0.7
2 0.5 0.7
2.125 0.5 0.7
2.25 0.5 0.7
2.375 0.5 0.7
2.5 0.5 0.7
2.625 0.5 0.7
2.75 0.5 0.7
2.875 0.5 0.7
3 0.5 0.7
3.125 0.5 0.7
3.25 0.5 0.7
3.375 0.5 0.7
3.5 0.5 0.7
3.625 0.5 0.7
3.75 0.5 0.7
3.875 0.5 0.7
4 0.5 0.7
0 0.625 0.7
0.125 0.625 0.7
0.25 0.625 0.7
0.375 0.625 0.7
0.5 0.625 0.7
0.625 0.625 0.7
0.75 0.625 0.7
0.875 0.625 0.7
1 0.625 0.7
1.125 0.625 0.7
1.25 0.625 0.7
1.375 0.625 0.7
1.5 0.625 0.7
1.625 0.625 0.7
1.75 0.625 0.7
1.875 0.625 0.7
2 0.625 0.7
2.125 0.625 0.7
2.25 0.625 0.7
2.375 0.625 0.7
2.5 0.625 0.7
2.625 0.625 0.7
2.75 0.625 0.7
2.875 0.625 0.7
3 0.625 0.7
3.125 0.625 0.7
3.25 0.625 0.7
3.375 0.625 0.7
3.5 0.625 0.7
3.625 0.625 0.7
3.75 0.625 0.7
3.875 0.625 0.7
4 0.625 0.7
0 0.75 0.7
0.125 0.75 0.7
0.25 0.75 0.7
0.375 0.75 0.7
0.5 0.75 0.7
0.625 0.75 0.7
0.75 0.75 0.7
0.875 0.75 0.7
1 0.75 0.7
1.125 0.75 0.7
1.25 0.75 0.7
1.375 0.75 0.7
1.5 0.75 0.7
1.625 0.75 0.7
1.75 0.75 0.7
1.875 0.75 0.7
2 0.75 0.7
2.125 0.75 0.7
2.25 0.75 0.7
2.375 0.75 0.7
2.5 0.75 0.7
2.625 0.75 0.7
2.75 0.75 0.7
2.875 0.75 0.7
3 0.75 0.7
3.125 0.75 0.7
3.25 0.75 0.7
3.375 0.75 0.7
3.5 0.75 0.7
3.625 0.75 0.7
3.75 0.75 0.7
3.875 0.75 0.7
4 0.75 0.7
0 0.875 0.7
0.125 0.875 0.7
0.25 0.875 0.7
0.375 0.875 0.7
0.5 0.875 0.7
0.625 0.875 0.7
0.75 0.875 0.7
0.875 0.875 0.7
1 0.875 0.7
1.125 0.875 0.7
1.25 0.875 0.7
1.375 0.875 0.7
1.5 0.875 0.7
1.625 0.875 0.7
1.75 0.875 0.7
1.875 0.875 0.7
2 0.875 0.7
2.125 0.875 0.7
2.25 0.875 0.7
2.375 0.875 0.7
2.5 0.875 0.7
2.625 0.875 0.7
2.75 0.875 0.7
2.875 0.875 0.7
3 0.875 0.7
3.125 0.875 0.7
3.25 0.875 0.7
3.375 0.875 0.7
3.5 0.875 0.7
3.625 0.875 0.7
3.75 0.875 0.7
3.875 0.875 0.7
4 0.875 0.7
0 1 0.7
0.125 1 0.7
0.25 1 0.7
0.375 1 0.7
0.5 1 0.7
0.625 1 0.7
0.75 1 0.7
0.875 1 0.7
1 1 0.7
1.125 1 0.7
1.25 1 0.7
1.375 1 0.7
1.5 1 0.7
1.625 1 0.7
1.75 1 0.7
1.875 1 0.7
2 1 0.7
2.125 1 0.7
2.25 1 0.7
2.375 1 0.7
2.5 1 0.7
2.625 1 0.7
2.75 1 0.7
2.875 1 0.7
3 1 0.7
3.125 1 0.7
3.25 1 0.7
3.375 1 0.7
3.5 1 0.7
3.625 1 0.7
3.75 1 0.7
3.875 1 0.7
4 1 0.7
0 0 0.825
0.125 0 0.825
0.25 0 0.825
0.375 0 0.825
0.5 0 0.825
0.625 0 0.825
0.75 0 0.825
0.875 0 0.825
1 0 0.825
1.125 0 0.825
1.25 0 0.825
1.375 0 0.825
1.5 0 0.825
1.625 0 0.825
1.75 0 0.825
1.875 0 0.825
2 0 0.825
2.125 0 0.825
2.25 0 0.825
2.375 0 0.825
2.5 0 0.825
2.625 0 0.825
2.75 0 0.825
2.875 0 0.825
3 0 0.825
3.125 0 0.825
3.25 0 0.825
3.375 0 0.825
3.5 0 0.825
3.625 0 0.825
3.75 0 0.825
3.875 0 0.825
4 0 0.825
0 0.125 0.825
0.125 0.125 0.825
0.25 0.125 0.825
0.375 0.125 0.825
0.5 0.125 0.825
0.625 0.125 0.825
0.75 0.125 0.825
0.875 0.125 0.825
1 0.125 0.825
1.125 0.125 0.825
1.25 0.125 0.825
1.375 0.125 0.825
1.5 0.125 0.825
1.625 0.125 0.825
1.75 0.125 0.825
1.875 0.125 0.825
2 0.125 0.825
2.125 0.125 0.825
2.25 0.125 0.825
2.375 0.125 0.825
2.5 0.125 0.825
2.625 0.125 0.825
2.75 0.125 0.825
2.875 0.125 0.825
3 0.125 0.825
3.125 0.125 0.825
3.25 0.125 0.825
3.375 0.125 0.825
3.5 0.125 0.825
3.625 0.125 0.825
3.75 0.125 0.825
3.875 0.125 0.825
4 0.125 0.825
0 0.25 0.825
0.125 0.25 0.825
0.25 0.25 0.825
0.375 0.25 0.825
0.5 0.25 0.825
0.625 0.25 0.825
0.75 0.25 0.825
0.875 0.25 0.825
1 0.25 0.825
1.125 0.25 0.825
1.25 0.25 0.825
1.375 0.25 0.825
1.5 0.25 0.825
1.625 0.25 0.825
1.75 0.25 0.825
1.875 0.25 0.825
2 0.25 0.825
2.125 0.25 0.825
2.25 0.25 0.825
2.375 0.25 0.825
2.5 0.25 0.825
2.625 0.25 0.825
2.75 0.25 0.825
2.875 0.25 0.825
3 0.25 0.825
3.125 0.25 0.825
3.25 0.25 0.825
3.375 0.25 0.825
3.5 0.25 0.825
3.625 0.25 0.825
3.75 0.25 0.825
3.875 0.25 0.825
4 0.25 0.825
0 0.375 0.825
0.125 0.375 0.825
0.25 0.375 0.825
0.375 0.375 0.825
0.5 0.375 0.825
0.625 0.375 0.825
0.75 0.375 0.825
0.875 0.375 0.825
1 0.375 0.825
1.125 0.375 0.825
1.25 0.375 0.825
1.375 0.375 0.825
1.5 0.375 0.825
1.625 0.375 0.825
1.75 0.375 0.825
1.875 0.375 0.825
2 0.375 0.825
2.125 0.375 0.825
2.25 0.375 0.825
2.375 0.375 0.825
2.5 0.375 0.825
2.625 0.375 0.825
2.75 0.375 0.825
2.875 0.375 0.825
3 0.375 0.825
3.125 0.375 0.825
3.25 0.375 0.825
3.375 0.375 0.825
3.5 0.375 0.825
3.625 0.375 0.825
3.75 0.375 0.825
3.875 0.375 0.825
4 0.375 0.825
0 0.5 0.825
0.125 0.5 0.825
0.25 0.5 0.825
0.375 0.5 0.825
0.5 0.5 0.825
0.625 0.5 0.825
0.75 0.5 0.825
0.875 0.5 0.825
1 0.5 0.825
1.125 0.5 0.825
1.25 0.5 0.825
1.375 0.5 0.825
1.5 0.5 0.825
1.625 0.5 0.825
1.75 0.5 0.825
1.875 0.5 0.825
2 0.5 0.825
2.125 0.5 0.825
2.25 0.5 0.825
2.375 0.5 0.825
2.5 0.5 0.825
2.625 0.5 0.825
2.75 0.5 0.825
2.875 0.5 0.825
3 0.5 0.825
3.125 0.5 0.825
3.25 0.5 0.825
3.375 0.5 0.825
3.5 0.5 0.825
3.625 0.5 0.825
3.75 0.5 0.825
3.875 0.5 0.825
4 0.5 0.825
0 0.625 0.825
0.125 0.625 0.825
0.25 0.625 0.825
0.375 0.625 0.825
0.5 0.625 0.825
0.625 0.625 0.825
0.75 0.625 0.825
0.875 0.625 0.825
1 0.625 0.825
1.125 0.625 0.825
1.25 0.625 0.825
1.375 0.625 0.825
1.5 0.625 0.825
1.625 0.625 0.825
1.75 0.625 0.825
1.875 0.625 0.825
2 0.625 0.825
2.125 0.625 0.825
2.25 0.625 0.825
2.375 0.625 0.825
2.5 0.625 0.825
2.625 0.625 0.825
2.75 0.625 0.825
2.875 0.625 0.825
3 0.625 0.825
3.125 0.625 0.825
3.25 0.625 0.825
3.375 0.625 0.825
3.5 0.625 0.825
3.625 0.625 0.825
3.75 0.625 0.825
3.875 0.625 0.825
4 0.625 0.825
0 0.75 0.825
0.125 0.75 0.825
0.25 0.75 0.825
0.375 0.75 0.825
0.5 0.75 0.825
0.625 0.75 0.825
0.75 0.75 0.825
0.875 0.75 0.825
1 0.75 0.825
1.125 0.75 0.825
1.25 0.75 0.825
1.375 0.75 0.825
1.5 0.75 0.825
1.625 0.75 0.825
1.75 0.75 0.825
1.875 0.75 0.825
2 0.75 0.825
2.125 0.75 0.825
2.25 0.75 0.825
2.375 0.75 0.825
2.5 0.75 0.825
2.625 0.75 0.825
2.75 0.75 0.825
2.875 0.75 0.825
3 0.75 0.825
3.125 0.75 0.825
3.25 0.75 0.825
3.375 0.75 0.825
3.5 0.75 0.825
3.625 0.75 0.825
3.75 0.75 0.825
3.875 0.75 0.825
4 0.75 0.825
0 0.875 0.825
0.125 0.875 0.825
0.25 0.875 0.825
0.375 0.875 0.825
0.5 0.875 0.825
0.625 0.875 0.825
0.75 0.875 0.825
0.875 0.875 0.825
1 0.875 0.825
1.125 0.875 0.825
1.25 0.875 0.825
1.375 0.875 0.825
1.5 0.875 0.825
1.625 0.875 0.825
1.75 0.875 0.825
1.875 0.875 0.825
2 0.875 0.825
2.125 0.875 0.825
2.25 0.875 0.825
2.375 0.875 0.825
2.5 0.875 0.825
2.625 0.875 0.825
2.75 0.875 0.825
2.875 0.875 0.825
3 0.875 0.825
3.125 0.875 0.825
3.25 0.875 0.825
3.375 0.875 0.825
3.5 0.875 0.825
3.625 0.875 0.825
3.75 0.875 0.825
3.875 0.875 0.825
4 0.875 0.825
0 1 0.825
0.125 1 0.825
0.25 1 0.825
0.375 1 0.825
0.5 1 0.825
0.625 1 0.825
0.75 1 0.825
0.875 1 0.825
1 1 0.825
1.125 1 0.825
1.25 1 0.825
1.375 1 0.825
1.5 1 0.825
1.625 1 0.825
1.75 1 0.825
1.875 1 0.825
2 1 0.825
2.125 1 0.825
2.25 1 0.825
2.375 1 0.825
2.5 1 0.825
2.625 1 0.825
2.75 1 0.825
2.875 1 0.825
3 1 0.825
3.125 1 0.825
3.25 1 0.825
3.375 1 0.825
3.5 1 0.825
3.625 1 0.825
3.75 1 0.825
3.875 1 0.825
4 1 0.825
0 0 0.95
0.125 0 0.95
0.25 0 0.95
0.375 0 0.95
0.5 0 0.95
0.625 0 0.95
0.75 0 0.95
0.875 0 0.95
1 0 0.95
1.125 0 0.95
1.25 0 0.95
1.375 0 0.95
1.5 0 0.95
1.625 0 0.95
1.75 0 0.95
1.875 0 0.95
2 0 0.95
2.125 0 0.95
2.25 0 0.95
2.375 0 0.95
2.5 0 0.95
2.625 0 0.95
2.75 0 0.95
2.875 0 0.95
3 0 0.95
3.125 0 0.95
3.25 0 0.95
3.375 0 0.95
3.5 0 0.95
3.625 0 0.95
3.75 0 0.95
3.875 0 0.95
4 0 0.95
0 0.125 0.95
0.125 0.125 0.95
0.25 0.125 0.95
0.375 0.125 0.95
0.5 0.125 0.95
0.625 0.125 0.95
0.75 0.125 0.95
0.875 0.125 0.95
1 0.125 0.95
1.125 0.125 0.95
1.25 0.125 0.95
1.375 0.125 0.95
1.5 0.125 0.95
1.625 0.125 0.95
1.75 0.125 0.95
1.875 0.125 0.95
2 0.125 0.95
2.125 0.125 0.95
2.25 0.125 0.95
2.375 0.125 0.95
2.5 0.125 0.95
2.625 0.125 0.95
2.75 0.125 0.95
2.875 0.125 0.95
3 0.125 0.95
3.125 0.125 0.95
3.25 0.125 0.95
3.375 0.125 0.95
3.5 0.125 0.95
3.625 0.125 0.95
3.75 0.125 0.95
3.875 0.125 0.95
4 0.125 0.95
0 0.25 0.95
0.125 0.25 0.95
0.25 0.25 0.95
0.375 0.25 0.95
0.5 0.25 0.95
0.625 0.25 0.95
0.75 0.25 0.95
0.875 0.25 0.95
1 0.25 0.95
1.125 0.25 0.95
1.25 0.25 0.95
1.375 0.25 0.95
1.5 0.25 0.95
1.625 0.25 0.95
1.75 0.25 0.95
1.875 0.25 0.95
2 0.25 0.95
2.125 0.25 0.95
2.25 0.25 0.95
2.375 0.25 0.95
2.5 0.25 0.95
2.625 0.25 0.95
[...]
POINT_DATA 18785
SCALARS weights float 1
LOOKUP_TABLE default
0.195312 0.260417 0.260417 0.260417 0.260417 0.260417 0.260417 0.260417 0.260417 0.260416 0.260417 0.260417 0.260417 0.260417 0.260416 0.260417 0.260417 0.260417 0.260417 0.260417 0.260417 0.260417 0.260417 0.260417 0.260416 0.260417 0.260416 0.260417 0.260416 0.260416 0.260417 0.260417 0.0651044 0.260417 0.390625 0.390625 0.390625 0.390625 0.390625 0.390625 0.390625 0.390625 0.390625 0.390625 0.390625 0.390625 0.390625 0.390625 0.390625 0.390625 0.390625 0.390625 0.390625 0.390625 0.390625 0.390625 0.390625 0.390625 0.390625 0.390624 0.390625 0.390625 0.390624 0.390625 0.390625 0.130209 0.260417 0.390625 0.390625 0.390625 0.390625 0.390625 0.390625 0.390625 0.390625 0.390625 0.390625 0.390625 0.390625 0.390625 0.390625 0.390625 0.390625 0.390625 0.390625 0.390625 0.390625 0.390625 0.390625 0.390625 0.390625 0.390625 0.390624 0.390625 0.390625 0.390624 0.390625 0.390625 0.130209 0.260417 0.390625 0.390625 0.390625 0.390625 0.390625 0.390625 0.390625 0.390625 0.390625 0.390625 0.390625 0.390625 0.390625 0.390625 0.390625 0.390625 0.390625 0.390625 0.390625 0.390625 0.390625 0.390625 0.390625 0.390625 0.390625 0.390624 0.390625 0.390625 0.390624 0.390625 0.390625 0.130209 0.260417 0.390625 0.390625 0.390625 0.390625 0.390625 0.390625 0.390625 0.390625 0.390625 0.390625 0.390625 0.390625 0.390625 0.390625 0.390625 0.390625 0.390625 0.390625 0.390625 0.390625 0.390625 0.390625 0.390625 0.390625 0.390625 0.390624 0.390625 0.390625 0.390624 0.390625 0.390625 0.130209 0.260417 0.390625 0.390625 0.390625 0.390625 0.390625 0.390625 0.390625 0.390625 0.390625 0.390625 0.390625 0.390625 0.390625 0.390625 0.390625 0.390625 0.390625 0.390625 0.390625 0.390625 0.390625 0.390625 0.390625 0.390625 0.390625 0.390624 0.390625 0.390625 0.390624 0.390625 0.390625 0.130209 0.260417 0.390625 0.390625 0.390625 0.390625 0.390625 0.390625 0.390625 0.390625 0.390625 0.390625 0.390625 0.390625 0.390625 0.390625 0.390625 0.390625 0.390625 0.390625 0.390626 0.390625 0.390625 0.390625 0.390625 0.390625 0.390625 0.390624 0.390625 0.390625 0.390624 0.390625 0.390625 0.130209 0.260417 0.390625 0.390625 0.390625 0.390625 0.390625 0.390625 0.390625 0.390625 0.390625 0.390625 0.390625 0.390625 0.390625 0.390625 0.390625 0.390625 0.390625 0.390625 0.390625 0.390625 0.390625 0.390625 0.390625 0.390625 0.390625 0.390624 0.390625 0.390625 0.390624 0.390625 0.390625 0.130209 0.0651042 0.130208 0.130208 0.130208 0.130208 0.130208 0.130208 0.130208 0.130208 0.130208 0.130208 0.130208 0.130208 0.130208 0.130208 0.130208 0.130209 0.130208 0.130208 0.130209 0.130208 0.130208 0.130208 0.130208 0.130208 0.130208 0.130208 0.130208 0.130209 0.130208 0.130208 0.130209 0.0651043 0.260417 0.390625 0.390625 0.390625 0.390625 0.390625 0.390625 0.390625 0.390625 0.390625 0.390625 0.390625 0.390625 0.390625 0.390625 0.390625 0.390625 0.390625 0.390625 0.390625 0.390625 0.390625 0.390625 0.390625 0.390625 0.390625 0.390624 0.390625 0.390625 0.390625 0.390625 0.390625 0.130209 0.390625 0.78125 0.78125 0.78125 0.78125 0.78125 0.78125 0.78125 0.78125 0.78125 0.78125 0.78125 0.78125 0.78125 0.78125 0.78125 0.78125 0.781251 0.78125 0.781251 0.78125 0.781251 0.78125 0.78125 0.78125 0.78125 0.781249 0.78125 0.781251 0.781249 0.781251 0.781251 0.390626 0.390625 0.78125 0.78125 0.78125 0.78125 0.78125 0.78125 0.78125 0.78125 0.78125 0.78125 0.78125 0.78125 0.78125 0.78125 0.78125 0.78125 0.781251 0.78125 0.781251 0.781251 0.781251 0.78125 0.78125 0.78125 0.78125 0.781249 0.78125 0.781251 0.781249 0.781251 0.781251 0.390626 0.390625 0.78125 0.78125 0.78125 0.78125 0.78125 0.78125 0.78125 0.78125 0.78125 0.78125 0.78125 0.78125 0.78125 0.78125 0.78125 0.78125 0.781251 0.78125 0.781251 0.78125 0.781251 0.78125 0.78125 0.78125 0.78125 0.781249 0.78125 0.781251 0.781249 0.781251 0.781251 0.390626 0.390625 0.78125 0.78125 0.78125 0.78125 0.78125 0.78125 0.78125 0.78125 0.78125 0.78125 0.78125 0.78125 0.78125 0.78125 0.78125 0.78125 0.78125 0.78125 0.781251 0.78125 0.781251 0.78125 0.78125 0.78125 0.78125 0.781249 0.78125 0.781251 0.781249 0.78125 0.78125 0.390626 0.390625 0.78125 0.78125 0.78125 0.78125 0.78125 0.78125 0.78125 0.78125 0.78125 0.78125 0.78125 0.78125 0.78125 0.78125 0.78125 0.781251 0.781251 0.78125 0.781251 0.781251 0.781251 0.78125 0.78125 0.78125 0.78125 0.781249 0.78125 0.781251 0.781249 0.781251 0.781251 0.390626 0.390625 0.78125 0.78125 0.78125 0.78125 0.78125 0.78125 0.78125 0.78125 0.78125 0.78125 0.781251 0.78125 0.78125 0.78125 0.78125 0.781251 0.781251 0.78125 0.781251 0.781251 0.781251 0.78125 0.78125 0.78125 0.78125 0.781249 0.78125 0.781251 0.781249 0.781251 0.781251 0.390626 0.390625 0.78125 0.78125 0.78125 0.78125 0.78125 0.78125 0.78125 0.78125 0.78125 0.78125 0.78125 0.78125 0.78125 0.78125 0.78125 0.78125 0.78125 0.78125 0.781251 0.78125 0.78125 0.78125 0.78125 0.78125 0.78125 0.781249 0.78125 0.78125 0.781249 0.78125 0.78125 0.390626 0.130208 0.390625 0.390625 0.390625 0.390625 0.390625 0.390625 0.390625 0.390625 0.390625 0.390625 0.390625 0.390625 0.390625 0.390625 0.390625 0.390625 0.390625 0.390625 0.390625 0.390625 0.390625 0.390625 0.390625 0.390625 0.390625 0.390625 0.390625 0.390626 0.390625 0.390625 0.390625 0.260417 0.260417 0.390625 0.390625 0.390625 0.390625 0.390625 0.390625 0.390625 0.390625 0.390625 0.390625 0.390625 0.390625 0.390625 0.390625 0.390625 0.390625 0.390625 0.390625 0.390626 0.390625 0.390625 0.390625 0.390625 0.390625 0.390625 0.390624 0.390625 0.390625 0.390625 0.390625 0.390625 0.130209 0.390625 0.78125 0.78125 0.78125 0.78125 0.78125 0.78125 0.78125 0.78125 0.78125 0.78125 0.781251 0.78125 0.78125 0.78125 0.78125 0.781251 0.781251 0.78125 0.781251 0.781251 0.781251 0.78125 0.781251 0.78125 0.78125 0.781249 0.78125 0.781251 0.78125 0.781251 0.781251 0.390626 0.390625 0.78125 0.78125 0.78125 0.78125 0.78125 0.78125 0.78125 0.78125 0.78125 0.78125 0.781251 0.78125 0.78125 0.78125 0.78125 0.781251 0.781251 0.78125 0.781251 0.781251 0.781251 0.78125 0.78125 0.78125 0.781251 0.78125 0.78125 0.781251 0.78125 0.781251 0.781251 0.390626 0.390625 0.78125 0.78125 0.78125 0.78125 0.78125 0.78125 0.78125 0.78125 0.78125 0.78125 0.781251 0.78125 0.78125 0.78125 0.78125 0.781251 0.781251 0.78125 0.781251 0.781251 0.781251 0.78125 0.78125 0.78125 0.78125 0.781249 0.78125 0.781251 0.78125 0.781251 0.781251 0.390626 0.390625 0.78125 0.78125 0.78125 0.78125 0.78125 0.78125 0.78125 0.78125 0.78125 0.78125 0.781251 0.78125 0.78125 0.78125 0.78125 0.781251 0.781251 0.78125 0.781251 0.781251 0.781251 0.78125 0.78125 0.78125 0.78125 0.781249 0.78125 0.781251 0.781249 0.781251 0.781251 0.390626 0.390625 0.78125 0.78125 0.78125 0.78125 0.78125 0.78125 0.78125 0.78125 0.78125 0.78125 0.781251 0.78125 0.78125 0.78125 0.78125 0.781251 0.781251 0.781251 0.781251 0.781251 0.781251 0.78125 0.781251 0.78125 0.781251 0.781249 0.78125 0.781251 0.78125 0.781251 0.781251 0.390626 0.390625 0.78125 0.78125 0.78125 0.78125 0.78125 0.78125 0.78125 0.78125 0.78125 0.78125 0.781251 0.78125 0.78125 0.78125 0.78125 0.781251 0.781251 0.781251 0.781251 0.781251 0.781251 0.78125 0.781251 0.78125 0.781251 0.78125 0.78125 0.781251 0.78125 0.781251 0.781251 0.390626 0.390625 0.78125 0.78125 0.78125 0.78125 0.78125 0.78125 0.78125 0.78125 0.78125 0.78125 0.781251 0.78125 0.78125 0.78125 0.78125 0.781251 0.781251 0.78125 0.781251 0.78125 0.781251 0.78125 0.78125 0.78125 0.78125 0.781249 0.78125 0.781251 0.781249 0.781251 0.781251 0.390626 0.130208 0.390625 0.390625 0.390625 0.390625 0.390625 0.390625 0.390625 0.390625 0.390625 0.390625 0.390625 0.390625 0.390625 0.390625 0.390625 0.390625 0.390625 0.390625 0.390626 0.390625 0.390625 0.390625 0.390625 0.390625 0.390625 0.390625 0.390625 0.390626 0.390625 0.390625 0.390626 0.260417 0.260417 0.390625 0.390625 0.390625 0.390625 0.390625 0.390625 0.390625 0.390625 0.390625 0.390625 0.390625 0.390625 0.390625 0.390625 0.390625 0.390625 0.390625 0.390625 0.390625 0.390625 0.390625 0.390625 0.390625 0.390625 0.390625 0.390624 0.390625 0.390625 0.390625 0.390625 0.390625 0.130209 0.390625 0.78125 0.78125 0.78125 0.78125 0.78125 0.78125 0.78125 0.78125 0.78125 0.78125 0.781251 0.78125 0.78125 0.78125 0.78125 0.781251 0.781251 0.78125 0.781251 0.781251 0.781251 0.78125 0.78125 0.78125 0.78125 0.781249 0.78125 0.781251 0.78125 0.781251 0.781251 0.390626 0.390625 0.78125 0.78125 0.78125 0.78125 0.78125 0.78125 0.78125 0.78125 0.78125 0.78125 0.781251 0.78125 0.78125 0.78125 0.78125 0.781251 0.781251 0.78125 0.781251 0.781251 0.781251 0.78125 0.78125 0.78125 0.78125 0.78125 0.78125 0.781251 0.78125 0.781251 0.781251 0.390626 0.390625 0.78125 0.78125 0.78125 0.78125 0.78125 0.78125 0.78125 0.78125 0.78125 0.78125 0.781251 0.78125 0.78125 0.78125 0.78125 0.781251 0.781251 0.78125 0.781251 0.781251 0.781251 0.78125 0.78125 0.78125 0.78125 0.781249 0.78125 0.781251 0.781249 0.781251 0.781251 0.390626 0.390625 0.78125 0.78125 0.78125 0.78125 0.78125 0.78125 0.78125 0.78125 0.78125 0.78125 0.781251 0.78125 0.78125 0.78125 0.78125 0.781251 0.781251 0.78125 0.781251 0.781251 0.781251 0.78125 0.78125 0.78125 0.78125 0.781249 0.78125 0.781251 0.781249 0.781251 0.781251 0.390626 0.390625 0.78125 0.78125 0.78125 0.78125 0.78125 0.78125 0.78125 0.78125 0.78125 0.78125 0.781251 0.78125 0.78125 0.78125 0.78125 0.781251 0.781251 0.781251 0.781251 0.781251 0.781251 0.78125 0.781251 0.78125 0.78125 0.78125 0.78125 0.781251 0.78125 0.781251 0.781251 0.390626 0.390625 0.78125 0.78125 0.78125 0.78125 0.78125 0.78125 0.78125 0.78125 0.78125 0.78125 0.781251 0.78125 0.78125 0.78125 0.78125 0.781251 0.781251 0.78125 0.781251 0.781251 0.781251 0.78125 0.781251 0.78125 0.78125 0.78125 0.78125 0.781251 0.78125 0.781251 0.781251 0.390626 0.390625 0.78125 0.78125 0.78125 0.78125 0.78125 0.78125 0.78125 0.78125 0.78125 0.78125 0.78125 0.78125 0.78125 0.78125 0.78125 0.78125 0.781251 0.78125 0.781251 0.78125 0.781251 0.78125 0.78125 0.78125 0.78125 0.781249 0.78125 0.781251 0.781249 0.781251 0.781251 0.390626 0.130208 0.390625 0.390625 0.390625 0.390625 0.390625 0.390625 0.390625 0.390625 0.390625 0.390625 0.390625 0.390625 0.390625 0.390625 0.390625 0.390625 0.390625 0.390625 0.390626 0.390625 0.390625 0.390625 0.390625 0.390625 0.390625 0.390625 0.390625 0.390626 0.390625 0.390625 0.390626 0.260417 0.260417 0.390625 0.390625 0.390625 0.390625 0.390625 0.390625 0.390625 0.390625 0.390625 0.390625 0.390625 0.390625 0.390625 0.390625 0.390625 0.390625 0.390625 0.390625 0.390625 0.390625 0.390625 0.390625 0.390625 0.390625 0.390625 0.390624 0.390625 0.390625 0.390625 0.390625 0.390625 0.130209 0.390625 0.78125 0.78125 0.78125 0.78125 0.78125 0.78125 0.78125 0.78125 0.78125 0.78125 0.78125 0.78125 0.78125 0.78125 0.78125 0.781251 0.781251 0.78125 0.781251 0.781251 0.781251 0.78125 0.78125 0.78125 0.78125 0.781249 0.78125 0.781251 0.781249 0.781251 0.781251 0.390626 0.390625 0.78125 0.78125 0.78125 0.78125 0.78125 0.78125 0.78125 0.78125 0.78125 0.78125 0.781251 0.78125 0.78125 0.78125 0.78125 0.781251 0.781251 0.78125 0.781251 0.781251 0.781251 0.78125 0.78125 0.78125 0.78125 0.781249 0.78125 0.781251 0.781249 0.781251 0.781251 0.390626 0.390625 0.78125 0.78125 0.78125 0.78125 0.78125 0.78125 0.78125 0.78125 0.78125 0.78125 0.781251 0.78125 0.78125 0.78125 0.78125 0.781251 0.781251 0.78125 0.781251 0.781251 0.781251 0.78125 0.78125 0.78125 0.78125 0.781249 0.78125 0.781251 0.781249 0.781251 0.781251 0.390626 0.390625 0.78125 0.78125 0.78125 0.78125 0.78125 0.78125 0.78125 0.78125 0.78125 0.78125 0.78125 0.78125 0.78125 0.78125 0.78125 0.78125 0.781251 0.78125 0.781251 0.78125 0.781251 0.78125 0.78125 0.78125 0.78125 0.781249 0.78125 0.781251 0.781249 0.781251 0.781251 0.390626 0.390625 0.78125 0.78125 0.78125 0.78125 0.78125 0.78125 0.78125 0.78125 0.78125 0.78125 0.781251 0.78125 0.78125 0.78125 0.78125 0.781251 0.781251 0.78125 0.781251 0.781251 0.781251 0.78125 0.781251 0.78125 0.78125 0.78125 0.78125 0.781251 0.781249 0.781251 0.781251 0.390626 0.390625 0.78125 0.78125 0.78125 0.78125 0.78125 0.78125 0.78125 0.78125 0.78125 0.78125 0.781251 0.78125 0.78125 0.78125 0.78125 0.781251 0.781251 0.781251 0.781251 0.781251 0.781251 0.78125 0.781251 0.78125 0.78125 0.781249 0.78125 0.781251 0.78125 0.781251 0.781251 0.390626 0.390625 0.78125 0.78125 0.78125 0.78125 0.78125 0.78125 0.78125 0.78125 0.78125 0.78125 0.78125 0.78125 0.78125 0.78125 0.78125 0.781251 0.781251 0.78125 0.781251 0.78125 0.781251 0.78125 0.78125 0.78125 0.78125 0.781249 0.78125 0.781251 0.781249 0.78125 0.781251 0.390626 0.130208 0.390625 0.390625 0.390625 0.390625 0.390625 0.390625 0.390625 0.390625 0.390625 0.390625 0.390625 0.390625 0.390625 0.390625 0.390625 0.390625 0.390625 0.390625 0.390625 0.390625 0.390625 0.390625 0.390625 0.390625 0.390625 0.390625 0.390625 0.390626 0.390625 0.390625 0.390625 0.260417 0.260417 0.390625 0.390625 0.390625 0.390625 0.390625 0.390625 0.390625 0.390625 0.390625 0.390625 0.390625 0.390625 0.390625 0.390625 0.390625 0.390625 0.390625 0.390625 0.390626 0.390626 0.390626 0.390625 0.390625 0.390625 0.390625 0.390625 0.390625 0.390625 0.390625 0.390625 0.390625 0.130209 0.390625 0.781251 0.781251 0.78125 0.781251 0.781251 0.781251 0.78125 0.78125 0.78125 0.781251 0.781251 0.781251 0.781251 0.78125 0.781251 0.781251 0.781251 0.781251 0.781251 0.781251 0.781251 0.78125 0.781251 0.78125 0.781251 0.78125 0.78125 0.781251 0.78125 0.781251 0.781251 0.390626 0.390625 0.781251 0.781251 0.781251 0.781251 0.781251 0.781251 0.78125 0.78125 0.78125 0.781251 0.781251 0.781251 0.781251 0.78125 0.781251 0.781251 0.781251 0.781251 0.781251 0.781251 0.781251 0.78125 0.781251 0.78125 0.781251 0.78125 0.78125 0.781251 0.78125 0.781251 0.781251 0.390626 0.390625 0.781251 0.781251 0.78125 0.78125 0.781251 0.781251 0.78125 0.78125 0.78125 0.781251 0.781251 0.781251 0.781251 0.78125 0.781251 0.781251 0.781251 0.781251 0.781252 0.781251 0.781251 0.78125 0.781251 0.78125 0.781251 0.78125 0.78125 0.781251 0.78125 0.781251 0.781251 0.390626 0.390625 0.781251 0.781251 0.78125 0.78125 0.78125 0.78125 0.78125 0.78125 0.78125 0.78125 0.781251 0.781251 0.781251 0.78125 0.781251 0.781251 0.781251 0.781251 0.781251 0.781251 0.781251 0.78125 0.781251 0.78125 0.781251 0.78125 0.78125 0.781251 0.78125 0.781251 0.781251 0.390626 0.390625 0.781251 0.781251 0.781251 0.781251 0.781251 0.781251 0.78125 0.78125 0.78125 0.781251 0.781251 0.781251 0.781251 0.78125 0.781251 0.781251 0.781251 0.781251 0.781252 0.781251 0.781251 0.78125 0.781251 0.78125 0.781251 0.78125 0.781251 0.781251 0.78125 0.781251 0.781251 0.390626 0.390625 0.781251 0.781251 0.781251 0.781251 0.781251 0.781251 0.781251 0.78125 0.78125 0.781251 0.781251 0.781251 0.781251 0.78125 0.781251 0.781251 0.781251 0.781251 0.781252 0.781251 0.781251 0.781251 0.781251 0.78125 0.781251 0.78125 0.781251 0.781251 0.78125 0.781251 0.781251 0.390626 0.390625 0.78125 0.78125 0.78125 0.78125 0.78125 0.781251 0.78125 0.78125 0.78125 0.78125 0.781251 0.78125 0.78125 0.78125 0.78125 0.781251 0.781251 0.781251 0.781251 0.781251 0.781251 0.78125 0.781251 0.78125 0.781251 0.78125 0.78125 0.781251 0.78125 0.781251 0.781251 0.390626 0.130208 0.390625 0.390625 0.390625 0.390625 0.390625 0.390625 0.390625 0.390625 0.390625 0.390625 0.390625 0.390625 0.390625 0.390625 0.390625 0.390626 0.390626 0.390625 0.390626 0.390625 0.390626 0.390625 0.390625 0.390625 0.390625 0.390625 0.390625 0.390626 0.390625 0.390625 0.390626 0.260417 0.260417 0.390625 0.390625 0.390625 0.390625 0.390625 0.390625 0.390625 0.390625 0.390625 0.390625 0.390625 0.390625 0.390625 0.390625 0.390625 0.390625 0.390625 0.390625 0.390625 0.390625 0.390625 0.390625 0.390625 0.390625 0.390625 0.390624 0.390625 0.390625 0.390625 0.390625 0.390625 0.130209 0.390625 0.78125 0.78125 0.78125 0.78125 0.78125 0.78125 0.78125 0.78125 0.78125 0.78125 0.78125 0.78125 0.78125 0.78125 0.78125 0.781251 0.781251 0.78125 0.781251 0.781251 0.781251 0.78125 0.78125 0.78125 0.78125 0.781249 0.78125 0.781251 0.781249 0.78125 0.781251 0.390626 0.390625 0.78125 0.78125 0.78125 0.78125 0.78125 0.78125 0.78125 0.78125 0.78125 0.78125 0.781251 0.78125 0.78125 0.78125 0.78125 0.781251 0.781251 0.78125 0.781251 0.781251 0.781251 0.78125 0.78125 0.78125 0.78125 0.781249 0.78125 0.781251 0.781249 0.781251 0.781251 0.390626 0.390625 0.78125 0.78125 0.78125 0.78125 0.78125 0.78125 0.78125 0.78125 0.78125 0.78125 0.781251 0.78125 0.78125 0.78125 0.78125 0.781251 0.781251 0.78125 0.781251 0.781251 0.781251 0.78125 0.78125 0.78125 0.78125 0.781249 0.78125 0.781251 0.781249 0.781251 0.781251 0.390626 0.390625 0.78125 0.78125 0.78125 0.78125 0.78125 0.78125 0.78125 0.78125 0.78125 0.78125 0.781251 0.78125 0.78125 0.78125 0.78125 0.781251 0.781251 0.78125 0.781251 0.781251 0.781251 0.78125 0.78125 0.78125 0.78125 0.781249 0.78125 0.781251 0.781249 0.78125 0.781251 0.390626 0.390625 0.78125 0.78125 0.78125 0.78125 0.78125 0.78125 0.78125 0.78125 0.78125 0.78125 0.781251 0.78125 0.78125 0.78125 0.78125 0.781251 0.781251 0.78125 0.781251 0.781251 0.781251 0.78125 0.781251 0.78125 0.78125 0.781249 0.78125 0.781251 0.781249 0.781251 0.781251 0.390626 0.390625 0.78125 0.78125 0.78125 0.78125 0.78125 0.78125 0.78125 0.78125 0.78125 0.78125 0.781251 0.78125 0.78125 0.78125 0.78125 0.781251 0.781251 0.78125 0.781251 0.781251 0.781251 0.78125 0.781251 0.78125 0.78125 0.781249 0.78125 0.781251 0.78125 0.781251 0.781251 0.390626 0.390625 0.78125 0.78125 0.78125 0.78125 0.78125 0.78125 0.78125 0.78125 0.78125 0.78125 0.781251 0.78125 0.78125 0.78125 0.78125 0.781251 0.781251 0.78125 0.781251 0.78125 0.781251 0.78125 0.78125 0.78125 0.78125 0.781249 0.78125 0.781251 0.781249 0.781251 0.781251 0.390626 0.130208 0.390625 0.390625 0.390625 0.390625 0.390625 0.390625 0.390625 0.390625 0.390625 0.390625 0.390625 0.390625 0.390625 0.390625 0.390625 0.390625 0.390625 0.390625 0.390626 0.390625 0.390625 0.390625 0.390625 0.390625 0.390625 0.390625 0.390625 0.390626 0.390625 0.390625 0.390626 0.260417 0.260417 0.390625 0.390625 0.390625 0.390625 0.390625 0.390625 0.390625 0.390625 0.390625 0.390625 0.390625 0.390625 0.390625 0.390625 0.390625 0.390625 0.390625 0.390625 0.390625 0.390625 0.390625 0.390625 0.390625 0.390625 0.390625 0.390624 0.390625 0.390625 0.390624 0.390625 0.390625 0.130209 0.390625 0.78125 0.78125 0.78125 0.78125 0.78125 0.78125 0.78125 0.78125 0.781249 0.78125 0.78125 0.78125 0.78125 0.78125 0.78125 0.78125 0.78125 0.78125 0.781251 0.78125 0.781251 0.78125 0.78125 0.78125 0.78125 0.781249 0.78125 0.78125 0.781249 0.78125 0.781251 0.390626 0.390625 0.78125 0.78125 0.78125 0.78125 0.78125 0.78125 0.78125 0.78125 0.78125 0.78125 0.78125 0.78125 0.78125 0.78125 0.78125 0.78125 0.781251 0.78125 0.781251 0.78125 0.781251 0.78125 0.78125 0.78125 0.78125 0.781249 0.78125 0.781251 0.781249 0.781251 0.781251 0.390626 0.390625 0.78125 0.78125 0.78125 0.78125 0.78125 0.78125 0.78125 0.78125 0.78125 0.78125 0.78125 0.78125 0.78125 0.78125 0.78125 0.78125 0.78125 0.78125 0.781251 0.78125 0.781251 0.78125 0.78125 0.78125 0.78125 0.781249 0.78125 0.781251 0.781249 0.78125 0.78125 0.390626 0.390625 0.78125 0.78125 0.78125 0.78125 0.78125 0.78125 0.78125 0.78125 0.781249 0.78125 0.78125 0.78125 0.78125 0.78125 0.78125 0.78125 0.78125 0.78125 0.781251 0.78125 0.78125 0.78125 0.78125 0.78125 0.78125 0.781249 0.78125 0.78125 0.781249 0.78125 0.781251 0.390626 0.390625 0.78125 0.78125 0.78125 0.78125 0.78125 0.78125 0.78125 0.78125 0.78125 0.78125 0.781251 0.78125 0.78125 0.78125 0.78125 0.781251 0.781251 0.78125 0.781251 0.78125 0.781251 0.78125 0.78125 0.78125 0.78125 0.781249 0.78125 0.781251 0.781249 0.781251 0.781251 0.390626 0.390625 0.78125 0.78125 0.78125 0.78125 0.78125 0.78125 0.78125 0.78125 0.78125 0.78125 0.78125 0.78125 0.78125 0.78125 0.78125 0.781251 0.781251 0.78125 0.781251 0.781251 0.781251 0.78125 0.78125 0.78125 0.78125 0.781249 0.78125 0.781251 0.781249 0.781251 0.781251 0.390626 0.390625 0.78125 0.78125 0.78125 0.78125 0.78125 0.78125 0.781249 0.781249 0.781249 0.78125 0.78125 0.