# vtk DataFile Version 5.1
vtk output
ASCII

DATASET UNSTRUCTURED_GRID
POINTS 18785 float
0 0 3.4
0.125 0 3.4
0.25 0 3.4
0.375 0 3.4
0.5 0 3.4
0.625 0 3.4
0.75 0 3.4
0.875 0 3.4
1 0 3.4
1.125 0 3.4
1.25 0 3.4
1.375 0 3.4
1.5 0 3.4
1.625 0 3.4
1.75 0 3.4
1.875 0 3.4
2 0 3.4
2.125 0 3.4
2.25 0 3.4
2.375 0 3.4
2.5 0 3.4
2.625 0 3.4
2.75 0 3.4
2.875 0 3.4
3 0 3.4
3.125 0 3.4
3.25 0 3.4
3.375 0 3.4
3.5 0 3.4
3.625 0 3.4
3.75 0 3.4
3.875 0 3.4
4 0 3.4
0 0.125 3.4
0.125 0.125 3.4
0.25 0.125 3.4
0.375 0.125 3.4
0.5 0.125 3.4
0.625 0.125 3.4
0.75 0.125 3.4
0.875 0.125 3.4
1 0.125 3.4
1.125 0.125 3.4
1.25 0.125 3.4
1.375 0.125 3.4
1.5 0.125 3.4
1.625 0.125 3.4
1.75 0.125 3.4
1.875 0.125 3.4
2 0.125 3.4
2.125 0.125 3.4
2.25 0.125 3.4
2.375 0.125 3.4
2.5 0.125 3.4
2.625 0.125 3.4
2.75 0.125 3.4
2.875 0.125 3.4
3 0.125 3.4
3.125 0.125 3.4
3.25 0.125 3.4
3.375 0.125 3.4
3.5 0.125 3.4
3.625 0.125 3.4
3.75 0.125 3.4
3.875 0.125 3.4
4 0.125 3.4
0 0.25 3.4
0.125 0.25 3.4
0.25 0.25 3.4
0.375 0.25 3.4
0.5 0.25 3.4
0.625 0.25 3.4
0.75 0.25 3.4
0.875 0.25 3.4
1 0.25 3.4
1.125 0.25 3.4
1.25 0.25 3.4
1.375 0.25 3.4
1.5 0.25 3.4
1.625 0.25 3.4
1.75 0.25 3.4
1.875 0.25 3.4
2 0.25 3.4
2.125 0.25 3.4
2.25 0.25 3.4
2.375 0.25 3.4
2.5 0.25 3.4
2.625 0.25 3.4
2.75 0.25 3.4
2.875 0.25 3.4
3 0.25 3.4
3.125 0.25 3.4
3.25 0.25 3.4
3.375 0.25 3.4
3.5 0.25 3.4
3.625 0.25 3.4
3.75 0.25 3.4
3.875 0.25 3.4
4 0.25 3.4
0 0.375 3.4
0.125 0.375 3.4
0.25 0.375 3.4
0.375 0.375 3.4
0.5 0.375 3.4
0.625 0.375 3.4
0.75 0.375 3.4
0.875 0.375 3.4
1 0.375 3.4
1.125 0.375 3.4
1.25 0.375 3.4
1.375 0.375 3.4
1.5 0.375 3.4
1.625 0.375 3.4
1.75 0.375 3.4
1.875 0.375 3.4
2 0.375 3.4
2.125 0.375 3.4
2.25 0.375 3.4
2.375 0.375 3.4
2.5 0.375 3.4
2.625 0.375 3.4
2.75 0.375 3.4
2.875 0.375 3.4
3 0.375 3.4
3.125 0.375 3.4
3.25 0.375 3.4
3.375 0.375 3.4
3.5 0.375 3.4
3.625 0.375 3.4
3.75 0.375 3.4
3.875 0.375 3.4
4 0.375 3.4
0 0.5 3.4
0.125 0.5 3.4
0.25 0.5 3.4
0.375 0.5 3.4
0.5 0.5 3.4
0.625 0.5 3.4
0.75 0.5 3.4
0.875 0.5 3.4
1 0.5 3.4
1.125 0.5 3.4
1.25 0.5 3.4
1.375 0.5 3.4
1.5 0.5 3.4
1.625 0.5 3.4
1.75 0.5 3.4
1.875 0.5 3.4
2 0.5 3.4
2.125 0.5 3.4
2.25 0.5 3.4
2.375 0.5 3.4
2.5 0.5 3.4
2.625 0.5 3.4
2.75 0.5 3.4
2.875 0.5 3.4
3 0.5 3.4
3.125 0.5 3.4
3.25 0.5 3.4
3.375 0.5 3.4
3.5 0.5 3.4
3.625 0.5 3.4
3.75 0.5 3.4
3.875 0.5 3.4
4 0.5 3.4
0 0.625 3.4
0.125 0.625 3.4
0.25 0.625 3.4
0.375 0.625 3.4
0.5 0.625 3.4
0.625 0.625 3.4
0.75 0.625 3.4
0.875 0.625 3.4
1 0.625 3.4
1.125 0.625 3.4
1.25 0.625 3.4
1.375 0.625 3.4
1.5 0.625 3.4
1.625 0.625 3.4
1.75 0.625 3.4
1.875 0.625 3.4
2 0.625 3.4
2.125 0.625 3.4
2.25 0.625 3.4
2.375 0.625 3.4
2.5 0.625 3.4
2.625 0.625 3.4
2.75 0.625 3.4
2.875 0.625 3.4
3 0.625 3.4
3.125 0.625 3.4
3.25 0.625 3.4
3.375 0.625 3.4
3.5 0.625 3.4
3.625 0.625 3.4
3.75 0.625 3.4
3.875 0.625 3.4
4 0.625 3.4
0 0.75 3.4
0.125 0.75 3.4
0.25 0.75 3.4
0.375 0.75 3.4
0.5 0.75 3.4
0.625 0.75 3.4
0.75 0.75 3.4
0.875 0.75 3.4
1 0.75 3.4
1.125 0.75 3.4
1.25 0.75 3.4
1.375 0.75 3.4
1.5 0.75 3.4
1.625 0.75 3.4
1.75 0.75 3.4
1.875 0.75 3.4
2 0.75 3.4
2.125 0.75 3.4
2.25 0.75 3.4
2.375 0.75 3.4
2.5 0.75 3.4
2.625 0.75 3.4
2.75 0.75 3.4
2.875 0.75 3.4
3 0.75 3.4
3.125 0.75 3.4
3.25 0.75 3.4
3.375 0.75 3.4
3.5 0.75 3.4
3.625 0.75 3.4
3.75 0.75 3.4
3.875 0.75 3.4
4 0.75 3.4
0 0.875 3.4
0.125 0.875 3.4
0.25 0.875 3.4
0.375 0.875 3.4
0.5 0.875 3.4
0.625 0.875 3.4
0.75 0.875 3.4
0.875 0.875 3.4
1 0.875 3.4
1.125 0.875 3.4
1.25 0.875 3.4
1.375 0.875 3.4
1.5 0.875 3.4
1.625 0.875 3.4
1.75 0.875 3.4
1.875 0.875 3.4
2 0.875 3.4
2.125 0.875 3.4
2.25 0.875 3.4
2.375 0.875 3.4
2.5 0.875 3.4
2.625 0.875 3.4
2.75 0.875 3.4
2.875 0.875 3.4
3 0.875 3.4
3.125 0.875 3.4
3.25 0.875 3.4
3.375 0.875 3.4
3.5 0.875 3.4
3.625 0.875 3.4
3.75 0.875 3.4
3.875 0.875 3.4
4 0.875 3.4
0 1 3.4
0.125 1 3.4
0.25 1 3.4
0.375 1 3.4
0.5 1 3.4
0.625 1 3.4
0.75 1 3.4
0.875 1 3.4
1 1 3.4
1.125 1 3.4
1.25 1 3.4
1.375 1 3.4
1.5 1 3.4
1.625 1 3.4
1.75 1 3.4
1.875 1 3.4
2 1 3.4
2.125 1 3.4
2.25 1 3.4
2.375 1 3.4
2.5 1 3.4
2.625 1 3.4
2.75 1 3.4
2.875 1 3.4
3 1 3.4
3.125 1 3.4
3.25 1 3.4
3.375 1 3.4
3.5 1 3.4
3.625 1 3.4
3.75 1 3.4
3.875 1 3.4
4 1 3.4
0 0 3.525
0.125 0 3.525
0.25 0 3.525
0.375 0 3.525
0.5 0 3.525
0.625 0 3.525
0.75 0 3.525
0.875 0 3.525
1 0 3.525
1.125 0 3.525
1.25 0 3.525
1.375 0 3.525
1.5 0 3.525
1.625 0 3.525
1.75 0 3.525
1.875 0 3.525
2 0 3.525
2.125 0 3.525
2.25 0 3.525
2.375 0 3.525
2.5 0 3.525
2.625 0 3.525
2.75 0 3.525
2.875 0 3.525
3 0 3.525
3.125 0 3.525
3.25 0 3.525
3.375 0 3.525
3.5 0 3.525
3.625 0 3.525
3.75 0 3.525
3.875 0 3.525
4 0 3.525
0 0.125 3.525
0.125 0.125 3.525
0.25 0.125 3.525
0.375 0.125 3.525
0.5 0.125 3.525
0.625 0.125 3.525
0.75 0.125 3.525
0.875 0.125 3.525
1 0.125 3.525
1.125 0.125 3.525
1.25 0.125 3.525
1.375 0.125 3.525
1.5 0.125 3.525
1.625 0.125 3.525
1.75 0.125 3.525
1.875 0.125 3.525
2 0.125 3.525
2.125 0.125 3.525
2.25 0.125 3.525
2.375 0.125 3.525
2.5 0.125 3.525
2.625 0.125 3.525
2.75 0.125 3.525
2.875 0.125 3.525
3 0.125 3.525
3.125 0.125 3.525
3.25 0.125 3.525
3.375 0.125 3.525
3.5 0.125 3.525
3.625 0.125 3.525
3.75 0.125 3.525
3.875 0.125 3.525
4 0.125 3.525
0 0.25 3.525
0.125 0.25 3.525
0.25 0.25 3.525
0.375 0.25 3.525
0.5 0.25 3.525
0.625 0.25 3.525
0.75 0.25 3.525
0.875 0.25 3.525
1 0.25 3.525
1.125 0.25 3.525
1.25 0.25 3.525
1.375 0.25 3.525
1.5 0.25 3.525
1.625 0.25 3.525
1.75 0.25 3.525
1.875 0.25 3.525
2 0.25 3.525
2.125 0.25 3.525
2.25 0.25 3.525
2.375 0.25 3.525
2.5 0.25 3.525
2.625 0.25 3.525
2.75 0.25 3.525
2.875 0.25 3.525
3 0.25 3.525
3.125 0.25 3.525
3.25 0.25 3.525
3.375 0.25 3.525
3.5 0.25 3.525
3.625 0.25 3.525
3.75 0.25 3.525
3.875 0.25 3.525
4 0.25 3.525
0 0.375 3.525
0.125 0.375 3.525
0.25 0.375 3.525
0.375 0.375 3.525
0.5 0.375 3.525
0.625 0.375 3.525
0.75 0.375 3.525
0.875 0.375 3.525
1 0.375 3.525
1.125 0.375 3.525
1.25 0.375 3.525
1.375 0.375 3.525
1.5 0.375 3.525
1.625 0.375 3.525
1.75 0.375 3.525
1.875 0.375 3.525
2 0.375 3.525
2.125 0.375 3.525
2.25 0.375 3.525
2.375 0.375 3.525
2.5 0.375 3.525
2.625 0.375 3.525
2.75 0.375 3.525
2.875 0.375 3.525
3 0.375 3.525
3.125 0.375 3.525
3.25 0.375 3.525
3.375 0.375 3.525
3.5 0.375 3.525
3.625 0.375 3.525
3.75 0.375 3.525
3.875 0.375 3.525
4 0.375 3.525
0 0.5 3.525
0.125 0.5 3.525
0.25 0.5 3.525
0.375 0.5 3.525
0.5 0.5 3.525
0.625 0.5 3.525
0.75 0.5 3.525
0.875 0.5 3.525
1 0.5 3.525
1.125 0.5 3.525
1.25 0.5 3.525
1.375 0.5 3.525
1.5 0.5 3.525
1.625 0.5 3.525
1.75 0.5 3.525
1.875 0.5 3.525
2 0.5 3.525
2.125 0.5 3.525
2.25 0.5 3.525
2.375 0.5 3.525
2.5 0.5 3.525
2.625 0.5 3.525
2.75 0.5 3.525
2.875 0.5 3.525
3 0.5 3.525
3.125 0.5 3.525
3.25 0.5 3.525
3.375 0.5 3.525
3.5 0.5 3.525
3.625 0.5 3.525
3.75 0.5 3.525
3.875 0.5 3.525
4 0.5 3.525
0 0.625 3.525
0.125 0.625 3.525
0.25 0.625 3.525
0.375 0.625 3.525
0.5 0.625 3.525
0.625 0.625 3.525
0.75 0.625 3.525
0.875 0.625 3.525
1 0.625 3.525
1.125 0.625 3.525
1.25 0.625 3.525
1.375 0.625 3.525
1.5 0.625 3.525
1.625 0.625 3.525
1.75 0.625 3.525
1.875 0.625 3.525
2 0.625 3.525
2.125 0.625 3.525
2.25 0.625 3.525
2.375 0.625 3.525
2.5 0.625 3.525
2.625 0.625 3.525
2.75 0.625 3.525
2.875 0.625 3.525
3 0.625 3.525
3.125 0.625 3.525
3.25 0.625 3.525
3.375 0.625 3.525
3.5 0.625 3.525
3.625 0.625 3.525
3.75 0.625 3.525
3.875 0.625 3.525
4 0.625 3.525
0 0.75 3.525
0.125 0.75 3.525
0.25 0.75 3.525
0.375 0.75 3.525
0.5 0.75 3.525
0.625 0.75 3.525
0.75 0.75 3.525
0.875 0.75 3.525
1 0.75 3.525
1.125 0.75 3.525
1.25 0.75 3.525
1.375 0.75 3.525
1.5 0.75 3.525
1.625 0.75 3.525
1.75 0.75 3.525
1.875 0.75 3.525
2 0.75 3.525
2.125 0.75 3.525
2.25 0.75 3.525
2.375 0.75 3.525
2.5 0.75 3.525
2.625 0.75 3.525
2.75 0.75 3.525
2.875 0.75 3.525
3 0.75 3.525
3.125 0.75 3.525
3.25 0.75 3.525
3.375 0.75 3.525
3.5 0.75 3.525
3.625 0.75 3.525
3.75 0.75 3.525
3.875 0.75 3.525
4 0.75 3.525
0 0.875 3.525
0.125 0.875 3.525
0.25 0.875 3.525
0.375 0.875 3.525
0.5 0.875 3.525
0.625 0.875 3.525
0.75 0.875 3.525
0.875 0.875 3.525
1 0.875 3.525
1.125 0.875 3.525
1.25 0.875 3.525
1.375 0.875 3.525
1.5 0.875 3.525
1.625 0.875 3.525
1.75 0.875 3.525
1.875 0.875 3.525
2 0.875 3.525
2.125 0.875 3.525
2.25 0.875 3.525
2.375 0.875 3.525
2.5 0.875 3.525
2.625 0.875 3.525
2.75 0.875 3.525
2.875 0.875 3.525
3 0.875 3.525
3.125 0.875 3.525
3.25 0.875 3.525
3.375 0.875 3.525
3.5 0.875 3.525
3.625 0.875 3.525
3.75 0.875 3.525
3.875 0.875 3.525
4 0.875 3.525
0 1 3.525
0.125 1 3.525
0.25 1 3.525
0.375 1 3.525
0.5 1 3.525
0.625 1 3.525
0.75 1 3.525
0.875 1 3.525
1 1 3.525
1.125 1 3.525
1.25 1 3.525
1.375 1 3.525
1.5 1 3.525
1.625 1 3.525
1.75 1 3.525
1.875 1 3.525
2 1 3.525
2.125 1 3.525
2.25 1 3.525
2.375 1 3.525
2.5 1 3.525
2.625 1 3.525
2.75 1 3.525
2.875 1 3.525
3 1 3.525
3.125 1 3.525
3.25 1 3.525
3.375 1 3.525
3.5 1 3.525
3.625 1 3.525
3.75 1 3.525
3.875 1 3.525
4 1 3.525
0 0 3.65
0.125 0 3.65
0.25 0 3.65
0.375 0 3.65
0.5 0 3.65
0.625 0 3.65
0.75 0 3.65
0.875 0 3.65
1 0 3.65
1.125 0 3.65
1.25 0 3.65
1.375 0 3.65
1.5 0 3.65
1.625 0 3.65
1.75 0 3.65
1.875 0 3.65
2 0 3.65
2.125 0 3.65
2.25 0 3.65
2.375 0 3.65
2.5 0 3.65
2.625 0 3.65
2.75 0 3.65
2.875 0 3.65
3 0 3.65
3.125 0 3.65
3.25 0 3.65
3.375 0 3.65
3.5 0 3.65
3.625 0 3.65
3.75 0 3.65
3.875 0 3.65
4 0 3.65
0 0.125 3.65
0.125 0.125 3.65
0.25 0.125 3.65
0.375 0.125 3.65
0.5 0.125 3.65
0.625 0.125 3.65
0.75 0.125 3.65
0.875 0.125 3.65
1 0.125 3.65
1.125 0.125 3.65
1.25 0.125 3.65
1.375 0.125 3.65
1.5 0.125 3.65
1.625 0.125 3.65
1.75 0.125 3.65
1.875 0.125 3.65
2 0.125 3.65
2.125 0.125 3.65
2.25 0.125 3.65
2.375 0.125 3.65
2.5 0.125 3.65
2.625 0.125 3.65
2.75 0.125 3.65
2.875 0.125 3.65
3 0.125 3.65
3.125 0.125 3.65
3.25 0.125 3.65
3.375 0.125 3.65
3.5 0.125 3.65
3.625 0.125 3.65
3.75 0.125 3.65
3.875 0.125 3.65
4 0.125 3.65
0 0.25 3.65
0.125 0.25 3.65
0.25 0.25 3.65
0.375 0.25 3.65
0.5 0.25 3.65
0.625 0.25 3.65
0.75 0.25 3.65
0.875 0.25 3.65
1 0.25 3.65
1.125 0.25 3.65
1.25 0.25 3.65
1.375 0.25 3.65
1.5 0.25 3.65
1.625 0.25 3.65
1.75 0.25 3.65
1.875 0.25 3.65
2 0.25 3.65
2.125 0.25 3.65
2.25 0.25 3.65
2.375 0.25 3.65
2.5 0.25 3.65
2.625 0.25 3.65
[...]
POINT_DATA 18785
SCALARS weights float 1
LOOKUP_TABLE default
0.072338 0.144676 0.144676 0.144676 0.144676 0.144676 0.144676 0.144676 0.144676 0.144676 0.144676 0.144676 0.144676 0.144676 0.144676 0.144676 0.144676 0.144676 0.144676 0.144676 0.144676 0.144676 0.144676 0.144676 0.144676 0.144676 0.144676 0.144676 0.144676 0.144676 0.144676 0.144676 0.072338 0.144676 0.289352 0.289352 0.289352 0.289352 0.289352 0.289352 0.289352 0.289352 0.289352 0.289352 0.289352 0.289352 0.289352 0.289352 0.289352 0.289352 0.289352 0.289352 0.289352 0.289352 0.289352 0.289352 0.289352 0.289352 0.289352 0.289352 0.289352 0.289352 0.289352 0.289352 0.289352 0.144676 0.144676 0.289352 0.289352 0.289352 0.289352 0.289352 0.289352 0.289352 0.289352 0.289352 0.289352 0.289352 0.289352 0.289352 0.289352 0.289352 0.289352 0.289352 0.289352 0.289352 0.289352 0.289352 0.289352 0.289352 0.289352 0.289352 0.289352 0.289352 0.289352 0.289352 0.289352 0.289352 0.144676 0.144676 0.289352 0.289352 0.289352 0.289352 0.289352 0.289352 0.289352 0.289352 0.289352 0.289352 0.289352 0.289352 0.289352 0.289352 0.289352 0.289352 0.289352 0.289352 0.289352 0.289352 0.289352 0.289352 0.289352 0.289352 0.289352 0.289352 0.289352 0.289352 0.289352 0.289352 0.289352 0.144676 0.144676 0.289352 0.289352 0.289352 0.289352 0.289352 0.289352 0.289352 0.289352 0.289352 0.289352 0.289352 0.289352 0.289352 0.289352 0.289352 0.289352 0.289352 0.289352 0.289352 0.289352 0.289352 0.289352 0.289352 0.289352 0.289352 0.289352 0.289352 0.289352 0.289352 0.289352 0.289352 0.144676 0.144676 0.289352 0.289352 0.289352 0.289352 0.289352 0.289352 0.289352 0.289352 0.289352 0.289352 0.289352 0.289352 0.289352 0.289352 0.289352 0.289352 0.289352 0.289352 0.289352 0.289352 0.289352 0.289352 0.289352 0.289352 0.289352 0.289352 0.289352 0.289352 0.289352 0.289352 0.289352 0.144676 0.144676 0.289352 0.289352 0.289352 0.289352 0.289352 0.289352 0.289352 0.289352 0.289352 0.289352 0.289352 0.289352 0.289352 0.289352 0.289352 0.289352 0.289352 0.289352 0.289352 0.289352 0.289352 0.289352 0.289352 0.289352 0.289352 0.289352 0.289352 0.289352 0.289352 0.289352 0.289352 0.144676 0.144676 0.289352 0.289352 0.289352 0.289352 0.289352 0.289352 0.289352 0.289352 0.289352 0.289352 0.289352 0.289352 0.289352 0.289352 0.289352 0.289352 0.289352 0.289352 0.289352 0.289352 0.289352 0.289352 0.289352 0.289352 0.289352 0.289352 0.289352 0.289352 0.289352 0.289352 0.289352 0.144676 0.072338 0.144676 0.144676 0.144676 0.144676 0.144676 0.144676 0.144676 0.144676 0.144676 0.144676 0.144676 0.144676 0.144676 0.144676 0.144676 0.144676 0.144676 0.144676 0.144676 0.144676 0.144676 0.144676 0.144676 0.144676 0.144676 0.144676 0.144676 0.144676 0.144676 0.144676 0.144676 0.072338 0.144676 0.289352 0.289352 0.289352 0.289352 0.289352 0.289352 0.289352 0.289352 0.289352 0.289352 0.289352 0.289352 0.289352 0.289352 0.289352 0.289352 0.289352 0.289352 0.289352 0.289352 0.289352 0.289352 0.289352 0.289352 0.289352 0.289352 0.289352 0.289352 0.289352 0.289352 0.289352 0.144676 0.289352 0.578704 0.578704 0.578704 0.578704 0.578704 0.578704 0.578704 0.578704 0.578704 0.578704 0.578704 0.578704 0.578704 0.578704 0.578704 0.578704 0.578704 0.578704 0.578703 0.578704 0.578704 0.578704 0.578704 0.578704 0.578704 0.578704 0.578704 0.578703 0.578703 0.578704 0.578704 0.289352 0.289352 0.578704 0.578704 0.578704 0.578704 0.578704 0.578704 0.578704 0.578704 0.578704 0.578704 0.578704 0.578704 0.578704 0.578704 0.578704 0.578704 0.578704 0.578704 0.578703 0.578704 0.578704 0.578704 0.578704 0.578704 0.578704 0.578704 0.578704 0.578703 0.578703 0.578704 0.578704 0.289352 0.289352 0.578704 0.578704 0.578704 0.578704 0.578704 0.578704 0.578704 0.578704 0.578704 0.578704 0.578704 0.578704 0.578704 0.578704 0.578704 0.578704 0.578704 0.578704 0.578703 0.578704 0.578704 0.578704 0.578704 0.578704 0.578704 0.578704 0.578704 0.578703 0.578703 0.578704 0.578704 0.289352 0.289352 0.578704 0.578704 0.578704 0.578704 0.578704 0.578704 0.578704 0.578704 0.578704 0.578704 0.578704 0.578704 0.578704 0.578704 0.578704 0.578704 0.578704 0.578704 0.578703 0.578704 0.578704 0.578704 0.578704 0.578704 0.578703 0.578704 0.578704 0.578703 0.578703 0.578704 0.578704 0.289352 0.289352 0.578704 0.578704 0.578704 0.578704 0.578704 0.578704 0.578704 0.578704 0.578704 0.578704 0.578704 0.578704 0.578704 0.578704 0.578704 0.578704 0.578704 0.578704 0.578703 0.578704 0.578704 0.578704 0.578704 0.578704 0.578704 0.578704 0.578704 0.578703 0.578703 0.578704 0.578704 0.289352 0.289352 0.578704 0.578704 0.578704 0.578704 0.578704 0.578704 0.578704 0.578704 0.578704 0.578704 0.578704 0.578704 0.578704 0.578704 0.578704 0.578704 0.578704 0.578704 0.578704 0.578704 0.578704 0.578704 0.578704 0.578704 0.578704 0.578704 0.578704 0.578703 0.578703 0.578704 0.578704 0.289352 0.289352 0.578704 0.578704 0.578704 0.578704 0.578704 0.578704 0.578704 0.578704 0.578704 0.578704 0.578704 0.578704 0.578704 0.578704 0.578704 0.578704 0.578704 0.578704 0.578703 0.578704 0.578704 0.578704 0.578704 0.578704 0.578704 0.578704 0.578704 0.578703 0.578703 0.578704 0.578704 0.289352 0.144676 0.289352 0.289352 0.289352 0.289352 0.289352 0.289352 0.289352 0.289352 0.289352 0.289352 0.289352 0.289352 0.289352 0.289352 0.289352 0.289352 0.289352 0.289352 0.289352 0.289352 0.289352 0.289352 0.289352 0.289352 0.289352 0.289352 0.289352 0.289351 0.289352 0.289352 0.289352 0.144676 0.144676 0.289352 0.289352 0.289352 0.289352 0.289352 0.289352 0.289352 0.289352 0.289352 0.289352 0.289352 0.289352 0.289352 0.289352 0.289352 0.289352 0.289352 0.289352 0.289352 0.289352 0.289352 0.289352 0.289352 0.289352 0.289352 0.289352 0.289352 0.289352 0.289352 0.289352 0.289352 0.144676 0.289352 0.578704 0.578704 0.578704 0.578704 0.578704 0.578704 0.578704 0.578704 0.578704 0.578704 0.578704 0.578704 0.578704 0.578704 0.578704 0.578704 0.578704 0.578704 0.578704 0.578704 0.578704 0.578704 0.578704 0.578704 0.578704 0.578704 0.578704 0.578703 0.578703 0.578704 0.578704 0.289352 0.289352 0.578704 0.578704 0.578704 0.578704 0.578704 0.578704 0.578704 0.578704 0.578704 0.578704 0.578704 0.578704 0.578704 0.578704 0.578704 0.578704 0.578704 0.578704 0.578704 0.578704 0.578704 0.578704 0.578704 0.578704 0.578704 0.578704 0.578704 0.578703 0.578703 0.578704 0.578704 0.289352 0.289352 0.578704 0.578704 0.578704 0.578704 0.578704 0.578704 0.578704 0.578704 0.578704 0.578704 0.578704 0.578704 0.578704 0.578704 0.578704 0.578704 0.578704 0.578704 0.578703 0.578704 0.578704 0.578704 0.578704 0.578704 0.578704 0.578704 0.578704 0.578703 0.578703 0.578704 0.578704 0.289352 0.289352 0.578704 0.578704 0.578704 0.578704 0.578704 0.578704 0.578704 0.578704 0.578704 0.578704 0.578704 0.578704 0.578704 0.578704 0.578704 0.578704 0.578704 0.578704 0.578703 0.578704 0.578704 0.578704 0.578704 0.578704 0.578704 0.578704 0.578704 0.578703 0.578703 0.578704 0.578704 0.289352 0.289352 0.578704 0.578704 0.578704 0.578704 0.578704 0.578704 0.578704 0.578704 0.578704 0.578704 0.578704 0.578704 0.578704 0.578704 0.578704 0.578704 0.578704 0.578704 0.578704 0.578704 0.578704 0.578704 0.578704 0.578704 0.578704 0.578704 0.578704 0.578703 0.578703 0.578704 0.578704 0.289352 0.289352 0.578704 0.578704 0.578704 0.578704 0.578704 0.578704 0.578704 0.578704 0.578704 0.578704 0.578704 0.578704 0.578704 0.578704 0.578704 0.578704 0.578704 0.578704 0.578704 0.578704 0.578704 0.578704 0.578704 0.578704 0.578704 0.578704 0.578704 0.578703 0.578703 0.578704 0.578704 0.289352 0.289352 0.578704 0.578704 0.578704 0.578704 0.578704 0.578704 0.578704 0.578704 0.578704 0.578704 0.578704 0.578704 0.578704 0.578704 0.578704 0.578704 0.578704 0.578704 0.578703 0.578704 0.578704 0.578704 0.578704 0.578704 0.578704 0.578704 0.578704 0.578703 0.578703 0.578704 0.578704 0.289352 0.144676 0.289352 0.289352 0.289352 0.289352 0.289352 0.289352 0.289352 0.289352 0.289352 0.289352 0.289352 0.289352 0.289352 0.289352 0.289352 0.289352 0.289352 0.289352 0.289352 0.289352 0.289352 0.289352 0.289352 0.289352 0.289352 0.289352 0.289352 0.289352 0.289352 0.289352 0.289352 0.144676 0.144676 0.289352 0.289352 0.289352 0.289352 0.289352 0.289352 0.289352 0.289352 0.289352 0.289352 0.289352 0.289352 0.289352 0.289352 0.289352 0.289352 0.289352 0.289352 0.289352 0.289352 0.289352 0.289352 0.289352 0.289352 0.289352 0.289352 0.289352 0.289351 0.289352 0.289352 0.289352 0.144676 0.289352 0.578704 0.578704 0.578704 0.578704 0.578704 0.578704 0.578704 0.578704 0.578704 0.578703 0.578704 0.578704 0.578704 0.578704 0.578704 0.578704 0.578704 0.578703 0.578703 0.578703 0.578704 0.578703 0.578704 0.578703 0.578703 0.578704 0.578704 0.578703 0.578703 0.578703 0.578704 0.289352 0.289352 0.578704 0.578704 0.578704 0.578704 0.578704 0.578704 0.578704 0.578704 0.578704 0.578703 0.578704 0.578704 0.578704 0.578704 0.578703 0.578704 0.578704 0.578703 0.578703 0.578703 0.578704 0.578703 0.578704 0.578703 0.578703 0.578704 0.578704 0.578703 0.578703 0.578703 0.578704 0.289352 0.289352 0.578704 0.578704 0.578704 0.578704 0.578704 0.578704 0.578704 0.578704 0.578704 0.578703 0.578703 0.578704 0.578704 0.578704 0.578704 0.578704 0.578703 0.578703 0.578703 0.578703 0.578704 0.578703 0.578704 0.578703 0.578703 0.578704 0.578704 0.578703 0.578703 0.578703 0.578704 0.289352 0.289352 0.578704 0.578704 0.578704 0.578703 0.578704 0.578704 0.578704 0.578704 0.578704 0.578703 0.578703 0.578703 0.578704 0.578703 0.578703 0.578704 0.578703 0.578703 0.578703 0.578703 0.578704 0.578703 0.578703 0.578703 0.578703 0.578704 0.578704 0.578703 0.578703 0.578703 0.578703 0.289352 0.289352 0.578704 0.578704 0.578704 0.578704 0.578704 0.578704 0.578704 0.578704 0.578704 0.578703 0.578704 0.578704 0.578704 0.578704 0.578703 0.578704 0.578703 0.578703 0.578703 0.578703 0.578704 0.578703 0.578703 0.578703 0.578703 0.578704 0.578704 0.578703 0.578703 0.578703 0.578704 0.289352 0.289352 0.578704 0.578704 0.578704 0.578704 0.578704 0.578704 0.578704 0.578704 0.578704 0.578703 0.578704 0.578704 0.578704 0.578704 0.578704 0.578704 0.578704 0.578703 0.578703 0.578703 0.578704 0.578703 0.578704 0.578704 0.578703 0.578704 0.578704 0.578703 0.578703 0.578703 0.578704 0.289352 0.289352 0.578704 0.578704 0.578704 0.578704 0.578704 0.578704 0.578704 0.578704 0.578704 0.578703 0.578703 0.578704 0.578704 0.578704 0.578703 0.578704 0.578703 0.578703 0.578703 0.578703 0.578704 0.578703 0.578703 0.578703 0.578703 0.578704 0.578704 0.578703 0.578703 0.578703 0.578704 0.289352 0.144676 0.289352 0.289352 0.289352 0.289352 0.289352 0.289352 0.289352 0.289352 0.289352 0.289352 0.289352 0.289352 0.289352 0.289352 0.289352 0.289352 0.289352 0.289352 0.289352 0.289352 0.289352 0.289352 0.289352 0.289352 0.289352 0.289352 0.289352 0.289351 0.289352 0.289352 0.289352 0.144676 0.144676 0.289352 0.289352 0.289352 0.289352 0.289352 0.289352 0.289352 0.289352 0.289352 0.289352 0.289352 0.289352 0.289352 0.289352 0.289352 0.289352 0.289352 0.289352 0.289352 0.289352 0.289352 0.289352 0.289352 0.289352 0.289352 0.289352 0.289352 0.289352 0.289352 0.289352 0.289352 0.144676 0.289352 0.578704 0.578704 0.578704 0.578704 0.578704 0.578704 0.578704 0.578704 0.578704 0.578704 0.578704 0.578704 0.578704 0.578704 0.578704 0.578704 0.578704 0.578704 0.578703 0.578704 0.578704 0.578704 0.578704 0.578704 0.578704 0.578704 0.578704 0.578703 0.578703 0.578704 0.578704 0.289352 0.289352 0.578704 0.578704 0.578704 0.578704 0.578704 0.578704 0.578704 0.578704 0.578704 0.578704 0.578704 0.578704 0.578704 0.578704 0.578704 0.578704 0.578704 0.578704 0.578703 0.578704 0.578704 0.578704 0.578704 0.578704 0.578704 0.578704 0.578704 0.578703 0.578703 0.578704 0.578704 0.289352 0.289352 0.578704 0.578704 0.578704 0.578704 0.578704 0.578704 0.578704 0.578704 0.578704 0.578704 0.578704 0.578704 0.578704 0.578704 0.578704 0.578704 0.578704 0.578704 0.578703 0.578704 0.578704 0.578704 0.578704 0.578704 0.578704 0.578704 0.578704 0.578703 0.578703 0.578704 0.578704 0.289352 0.289352 0.578704 0.578704 0.578704 0.578704 0.578704 0.578704 0.578704 0.578704 0.578704 0.578704 0.578704 0.578704 0.578704 0.578704 0.578704 0.578704 0.578704 0.578704 0.578703 0.578704 0.578704 0.578704 0.578704 0.578704 0.578704 0.578704 0.578704 0.578703 0.578703 0.578704 0.578704 0.289352 0.289352 0.578704 0.578704 0.578704 0.578704 0.578704 0.578704 0.578704 0.578704 0.578704 0.578704 0.578704 0.578704 0.578704 0.578704 0.578704 0.578704 0.578704 0.578704 0.578703 0.578704 0.578704 0.578704 0.578704 0.578704 0.578703 0.578704 0.578704 0.578703 0.578703 0.578704 0.578704 0.289352 0.289352 0.578704 0.578704 0.578704 0.578704 0.578704 0.578704 0.578704 0.578704 0.578704 0.578704 0.578704 0.578704 0.578704 0.578704 0.578704 0.578704 0.578704 0.578704 0.578703 0.578704 0.578704 0.578704 0.578704 0.578704 0.578704 0.578704 0.578704 0.578703 0.578703 0.578704 0.578704 0.289352 0.289352 0.578704 0.578704 0.578704 0.578704 0.578704 0.578704 0.578704 0.578704 0.578704 0.578704 0.578704 0.578704 0.578704 0.578704 0.578704 0.578704 0.578704 0.578704 0.578703 0.578704 0.578704 0.578704 0.578704 0.578704 0.578704 0.578704 0.578704 0.578703 0.578703 0.578704 0.578704 0.289352 0.144676 0.289352 0.289352 0.289352 0.289352 0.289352 0.289352 0.289352 0.289352 0.289352 0.289352 0.289352 0.289352 0.289352 0.289352 0.289352 0.289352 0.289352 0.289352 0.289352 0.289352 0.289352 0.289352 0.289352 0.289352 0.289352 0.289352 0.289352 0.289351 0.289352 0.289352 0.289352 0.144676 0.144676 0.289352 0.289352 0.289352 0.289352 0.289352 0.289352 0.289352 0.289352 0.289352 0.289352 0.289352 0.289352 0.289352 0.289352 0.289352 0.289352 0.289352 0.289352 0.289352 0.289352 0.289352 0.289352 0.289352 0.289352 0.289352 0.289352 0.289352 0.289352 0.289352 0.289352 0.289352 0.144676 0.289352 0.578704 0.578704 0.578704 0.578704 0.578704 0.578704 0.578704 0.578704 0.578704 0.578704 0.578704 0.578704 0.578704 0.578704 0.578704 0.578704 0.578704 0.578704 0.578704 0.578704 0.578704 0.578704 0.578704 0.578704 0.578704 0.578704 0.578704 0.578703 0.578704 0.578704 0.578704 0.289352 0.289352 0.578704 0.578704 0.578704 0.578704 0.578704 0.578704 0.578704 0.578704 0.578704 0.578704 0.578704 0.578704 0.578704 0.578704 0.578704 0.578704 0.578704 0.578704 0.578704 0.578704 0.578704 0.578704 0.578704 0.578704 0.578704 0.578704 0.578704 0.578703 0.578703 0.578704 0.578704 0.289352 0.289352 0.578704 0.578704 0.578704 0.578704 0.578704 0.578704 0.578704 0.578704 0.578704 0.578704 0.578704 0.578704 0.578704 0.578704 0.578704 0.578704 0.578704 0.578704 0.578704 0.578704 0.578704 0.578704 0.578704 0.578704 0.578704 0.578704 0.578704 0.578703 0.578703 0.578704 0.578704 0.289352 0.289352 0.578704 0.578704 0.578704 0.578704 0.578704 0.578704 0.578704 0.578704 0.578704 0.578704 0.578704 0.578704 0.578704 0.578704 0.578704 0.578704 0.578704 0.578704 0.578704 0.578704 0.578704 0.578704 0.578704 0.578704 0.578704 0.578704 0.578704 0.578703 0.578703 0.578704 0.578704 0.289352 0.289352 0.578704 0.578704 0.578704 0.578704 0.578704 0.578704 0.578704 0.578704 0.578704 0.578704 0.578704 0.578704 0.578704 0.578704 0.578704 0.578704 0.578704 0.578704 0.578704 0.578704 0.578704 0.578704 0.578704 0.578704 0.578704 0.578704 0.578704 0.578703 0.578703 0.578704 0.578704 0.289352 0.289352 0.578704 0.578704 0.578704 0.578704 0.578704 0.578704 0.578704 0.578704 0.578704 0.578704 0.578704 0.578704 0.578704 0.578704 0.578704 0.578704 0.578704 0.578704 0.578704 0.578704 0.578704 0.578704 0.578704 0.578704 0.578704 0.578704 0.578704 0.578703 0.578703 0.578704 0.578704 0.289352 0.289352 0.578704 0.578704 0.578704 0.578704 0.578704 0.578704 0.578704 0.578704 0.578704 0.578704 0.578704 0.578704 0.578704 0.578704 0.578704 0.578704 0.578704 0.578704 0.578704 0.578704 0.578704 0.578704 0.578704 0.578704 0.578704 0.578704 0.578704 0.578703 0.578703 0.578704 0.578704 0.289352 0.144676 0.289352 0.289352 0.289352 0.289352 0.289352 0.289352 0.289352 0.289352 0.289352 0.289352 0.289352 0.289352 0.289352 0.289352 0.289352 0.289352 0.289352 0.289352 0.289352 0.289352 0.289352 0.289352 0.289352 0.289352 0.289352 0.289352 0.289352 0.289352 0.289352 0.289352 0.289352 0.144676 0.144676 0.289352 0.289352 0.289352 0.289352 0.289352 0.289352 0.289352 0.289352 0.289352 0.289352 0.289352 0.289352 0.289352 0.289352 0.289352 0.289352 0.289352 0.289352 0.289352 0.289352 0.289352 0.289352 0.289352 0.289352 0.289352 0.289352 0.289352 0.289351 0.289352 0.289352 0.289352 0.144676 0.289352 0.578704 0.578704 0.578704 0.578704 0.578704 0.578704 0.578704 0.578704 0.578704 0.578703 0.578704 0.578704 0.578704 0.578704 0.578704 0.578704 0.578704 0.578703 0.578703 0.578703 0.578704 0.578703 0.578704 0.578704 0.578703 0.578704 0.578704 0.578703 0.578703 0.578703 0.578704 0.289352 0.289352 0.578704 0.578704 0.578704 0.578704 0.578704 0.578704 0.578704 0.578704 0.578704 0.578704 0.578704 0.578704 0.578704 0.578704 0.578704 0.578704 0.578703 0.578703 0.578703 0.578703 0.578704 0.578704 0.578704 0.578704 0.578703 0.578704 0.578704 0.578703 0.578703 0.578703 0.578704 0.289352 0.289352 0.578704 0.578704 0.578704 0.578704 0.578704 0.578704 0.578704 0.578704 0.578704 0.578703 0.578704 0.578704 0.578704 0.578704 0.578704 0.578704 0.578703 0.578703 0.578703 0.578703 0.578704 0.578703 0.578704 0.578703 0.578703 0.578704 0.578704 0.578703 0.578703 0.578703 0.578704 0.289352 0.289352 0.578704 0.578704 0.578704 0.578704 0.578704 0.578704 0.578704 0.578704 0.578703 0.578703 0.578703 0.578704 0.578704 0.578703 0.578703 0.578704 0.578703 0.578703 0.578703 0.578703 0.578704 0.578703 0.578703 0.578703 0.578703 0.578704 0.578704 0.578703 0.578703 0.578703 0.578704 0.289352 0.289352 0.578704 0.578704 0.578704 0.578704 0.578704 0.578704 0.578704 0.578704 0.578704 0.578703 0.578704 0.578704 0.578704 0.578704 0.578703 0.578704 0.578703 0.578703 0.578703 0.578703 0.578704 0.578704 0.578704 0.578703 0.578703 0.578704 0.578704 0.578703 0.578703 0.578703 0.578704 0.289352 0.289352 0.578704 0.578704 0.578704 0.578704 0.578704 0.578704 0.578704 0.578704 0.578704 0.578704 0.578704 0.578704 0.578704 0.578704 0.578704 0.578704 0.578704 0.578703 0.578703 0.578704 0.578704 0.578704 0.578704 0.578704 0.578703 0.578704 0.578704 0.578703 0.578703 0.578703 0.578704 0.289352 0.289352 0.578704 0.578704 0.578704 0.578704 0.578704 0.578704 0.578704 0.578704 0.578704 0.578703 0.578704 0.578704 0.578704 0.578704 0.578704 0.578704 0.578704 0.578703 0.578703 0.578703 0.578704 0.578703 0.578704 0.578703 0.578703 0.578704 0.578704 0.578703 0.578703 0.578703 0.578704 0.289352 0.144676 0.289352 0.289352 0.289352 0.289352 0.289352 0.289352 0.289352 0.289352 0.289352 0.289352 0.289352 0.289352 0.289352 0.289352 0.289352 0.289352 0.289352 0.289352 0.289352 0.289352 0.289352 0.289352 0.289352 0.289352 0.289352 0.289352 0.289352 0.289351 0.289352 0.289352 0.289352 0.144676 0.144676 0.289352 0.289352 0.289352 0.289352 0.289352 0.289352 0.289352 0.289352 0.289352 0.289352 0.289352 0.289352 0.289352 0.289352 0.289352 0.289352 0.289352 0.289352 0.289352 0.289352 0.289352 0.289352 0.289352 0.289352 0.289352 0.289352 0.289352 0.289352 0.289352 0.289352 0.289352 0.144676 0.289352 0.578704 0.578704 0.578704 0.578704 0.578704 0.578704 0.578704 0.578704 0.578704 0.578704 0.578704 0.578704 0.578704 0.578704 0.578704 0.578704 0.578704 0.578704 0.578703 0.578704 0.578704 0.578704 0.578704 0.578704 0.578704 0.578704 0.578704 0.578703 0.578703 0.578704 0.578704 0.289352 0.289352 0.578704 0.578704 0.578704 0.578704 0.578704 0.578704 0.578704 0.578704 0.578704 0.578704 0.578704 0.578704 0.578704 0.578704 0.578704 0.578704 0.578704 0.578704 0.578703 0.578704 0.578704 0.578704 0.578704 0.578704 0.578703 0.578704 0.578704 0.578703 0.578703 0.578704 0.578704 0.289352 0.289352 0.578704 0.578704 0.578704 0.578704 0.578704 0.578704 0.578704 0.578704 0.578704 0.578704 0.578704 0.578704 0.578704 0.578704 0.578704 0.578704 0.578704 0.578704 0.578703 0.578704 0.578704 0.578704 0.578704 0.578704 0.578703 0.578704 0.578704 0.578703 0.578703 0.578704 0.578704 0.289352 0.289352 0.578704 0.578704 0.578704 0.5