# vtk DataFile Version 5.1
vtk output
ASCII

DATASET UNSTRUCTURED_GRID
POINTS 2025 float
0 0 0
0.193657 -0.030151 -0.041059
0.402594 -0.0769773 -0.0415586
0.606672 -0.148679 -0.0328271
0.811401 -0.235402 -0.0243021
1.01794 -0.333324 -0.017283
1.22641 -0.439971 -0.0116196
1.43684 -0.553177 -0.00704114
1.64929 -0.670905 -0.00336842
1.86379 -0.791329 -0.000510132
2.08027 -0.912812 0.00154715
2.29842 -1.03411 0.00286395
2.51765 -1.15466 0.00377783
0 0.25 0
0.232285 0.234444 -0.020175
0.462273 0.177896 -0.0203933
0.686448 0.0993296 -0.0159164
0.905872 0.00556457 -0.0113977
1.12261 -0.0987072 -0.0075346
1.33803 -0.210592 -0.0043694
1.55299 -0.327801 -0.00180399
1.76812 -0.448362 0.000249523
1.98389 -0.570551 0.00185091
2.20065 -0.692959 0.00302617
2.41858 -0.814639 0.00386442
2.63758 -0.935017 0.00466878
0 0.5 0
0.254594 0.48284 0.000364989
0.506399 0.423736 0.00108842
0.750484 0.341308 0.00168561
0.986416 0.243313 0.00254822
1.21583 0.134603 0.00326709
1.44052 0.0186666 0.0037921
1.66201 -0.101847 0.00417871
1.88152 -0.224867 0.00447908
2.10009 -0.348743 0.00471451
2.31845 -0.472221 0.00491155
2.53715 -0.594447 0.00510578
2.75654 -0.714818 0.00541558
0 0.75 0
0.276262 0.720225 0.0209446
0.549102 0.658808 0.0213463
0.812172 0.574812 0.0192607
1.06416 0.47438 0.0168583
1.30642 0.36283 0.0145053
1.54082 0.24419 0.012349
1.76935 0.121449 0.0104636
1.99372 -0.00320581 0.00890615
2.21543 -0.128147 0.00769511
2.43569 -0.252179 0.00686319
2.65538 -0.374578 0.00638594
2.87513 -0.495032 0.00618027
0 1 0
0.305067 0.946056 0.039356
0.600475 0.884999 0.0418678
0.881357 0.79936 0.0372478
1.14838 0.69694 0.0315569
1.40252 0.583498 0.0260523
1.64587 0.463353 0.0210768
1.88071 0.339666 0.0168172
2.10923 0.214616 0.0132574
2.33336 0.0897588 0.0104871
2.55479 -0.0338447 0.00854026
2.77488 -0.155662 0.00747248
2.99452 -0.275963 0.00714865
0 0 0.25
0.197558 -0.0477815 0.231379
0.396268 -0.0938011 0.228711
0.598401 -0.160796 0.232639
0.803731 -0.243856 0.237295
1.01153 -0.339289 0.241196
1.22133 -0.444197 0.244317
1.43295 -0.55612 0.246835
1.64642 -0.672892 0.248878
1.86175 -0.792616 0.25054
2.07882 -0.913674 0.251821
2.29728 -1.03475 0.252725
2.51643 -1.15513 0.253433
0 0.25 0.25
0.233778 0.221194 0.24046
0.45799 0.163788 0.238808
0.679502 0.0876645 0.241307
0.898979 -0.00321736 0.244138
1.11673 -0.105175 0.246508
1.33331 -0.215295 0.24842
1.54934 -0.33115 0.249962
1.76537 -0.450675 0.251245
1.98186 -0.572086 0.252295
2.19916 -0.693995 0.253137
2.41742 -0.815357 0.253795
2.63651 -0.935502 0.254403
0 0.5 0.25
0.253146 0.472315 0.249578
0.502924 0.410923 0.249753
0.745842 0.32979 0.250622
0.981806 0.233979 0.251575
1.21183 0.127364 0.252346
1.43731 0.0132062 0.252938
1.65953 -0.105873 0.253422
1.87966 -0.227749 0.253846
2.09872 -0.350741 0.254226
2.31743 -0.473585 0.254581
2.53633 -0.595383 0.254929
2.75576 -0.715508 0.255336
0 0.75 0.25
0.271473 0.710099 0.258987
0.545686 0.646427 0.260615
0.809234 0.563169 0.260198
1.06156 0.464551 0.259359
1.30421 0.354941 0.258523
1.53909 0.238069 0.25776
1.76806 0.116839 0.2571
1.99279 -0.0065462 0.256593
2.21475 -0.130462 0.25625
2.43518 -0.253747 0.256078
2.65489 -0.375642 0.256097
2.87464 -0.495879 0.256284
0 1 0.25
0.300578 0.933716 0.267915
0.59694 0.871893 0.271649
0.87898 0.787645 0.270048
1.14648 0.687113 0.267579
1.40098 0.575572 0.265131
1.64467 0.457195 0.262926
1.87984 0.335036 0.261043
2.10869 0.211305 0.259492
2.33301 0.0875427 0.258321
2.55444 -0.035244 0.257569
2.77446 -0.156558 0.257235
2.99407 -0.276719 0.257281
0 0 0.5
0.197118 -0.0524749 0.501019
0.39527 -0.0998322 0.500244
0.596519 -0.165838 0.500116
0.80155 -0.24764 0.500166
1.00945 -0.342124 0.500342
1.2195 -0.446368 0.500598
1.43141 -0.557801 0.500926
1.64511 -0.674195 0.501303
1.86063 -0.793648 0.501747
2.07782 -0.914491 0.502235
2.29634 -1.03544 0.502751
2.51548 -1.15577 0.503242
0 0.25 0.5
0.233853 0.21827 0.499819
0.457117 0.159282 0.49957
0.677577 0.0833681 0.499916
0.896672 -0.00671717 0.500326
1.11452 -0.107915 0.500753
1.33136 -0.217435 0.501228
1.54767 -0.332825 0.501705
1.76395 -0.451983 0.502213
1.98065 -0.573132 0.502718
2.19811 -0.694845 0.503224
2.41645 -0.816073 0.503738
2.63557 -0.936193 0.504222
0 0.5 0.5
0.252492 0.470155 0.499624
0.501828 0.407221 0.499899
0.744264 0.32588 0.50048
0.980027 0.230519 0.501065
1.2101 0.124506 0.501631
1.43573 0.0108956 0.502184
1.65814 -0.107706 0.502728
1.87847 -0.229198 0.503252
2.09765 -0.351888 0.503779
2.31647 -0.474497 0.504269
2.53543 -0.596146 0.504785
2.75488 -0.71624 0.505293
0 0.75 0.5
0.270313 0.707588 0.50022
0.544271 0.642757 0.500912
0.807906 0.559327 0.50168
1.06023 0.461058 0.5023
1.30296 0.35197 0.50286
1.53794 0.235627 0.503398
1.76702 0.114875 0.503915
1.99185 -0.00811022 0.504398
2.21391 -0.131698 0.504872
2.43438 -0.254715 0.505344
2.65415 -0.376448 0.505824
2.87387 -0.496629 0.506347
0 1 0.5
0.300137 0.930149 0.501905
0.595528 0.867814 0.503018
0.87758 0.783847 0.503613
1.14515 0.683778 0.504122
1.39971 0.572774 0.504563
1.64349 0.4549 0.504984
1.87879 0.333205 0.505351
2.10769 0.209863 0.505725
2.33208 0.0864189 0.506094
2.55363 -0.0361214 0.506445
2.77368 -0.157301 0.506861
2.99333 -0.277455 0.507327
0 0 0.75
0.198212 -0.047593 0.770502
0.395563 -0.0949325 0.771688
0.597046 -0.161946 0.767599
0.802172 -0.245014 0.76312
1.00991 -0.340516 0.759554
1.21967 -0.445499 0.756919
1.43127 -0.557479 0.755029
1.64473 -0.674265 0.753722
1.86004 -0.793994 0.75295
2.07712 -0.915019 0.752647
2.2956 -1.03604 0.752753
2.51483 -1.15635 0.753019
0 0.25 0.75
0.23375 0.221093 0.759356
0.457277 0.16318 0.760339
0.678398 0.0867443 0.758551
0.897667 -0.00430086 0.756585
1.11529 -0.106373 0.755089
1.33177 -0.216572 0.754104
1.54772 -0.332473 0.753494
1.76369 -0.452003 0.753213
1.98016 -0.573434 0.75317
2.19744 -0.695316 0.753346
2.41569 -0.816626 0.753698
2.63485 -0.936705 0.75406
0 0.5 0.75
0.252942 0.471757 0.749588
0.502483 0.410305 0.750191
0.745053 0.329012 0.750426
0.980747 0.23302 0.750632
1.21058 0.126252 0.750982
1.43588 0.0119837 0.751472
1.65797 -0.107153 0.752055
1.87804 -0.229053 0.752677
2.09701 -0.352049 0.753336
2.31567 -0.474865 0.753988
2.53456 -0.596619 0.75463
2.75403 -0.716674 0.755249
0 0.75 0.75
0.271373 0.709438 0.741148
0.545647 0.645932 0.741338
0.808806 0.562476 0.743201
1.06078 0.463628 0.745225
1.30318 0.35385 0.74719
1.53785 0.236865 0.749043
1.76664 0.115572 0.750727
1.99124 -0.00784852 0.752224
2.2131 -0.131761 0.753528
2.43346 -0.255008 0.75463
2.65316 -0.37685 0.755554
2.87289 -0.496994 0.756428
0 1 0.75
0.301728 0.933763 0.735342
0.597429 0.871483 0.734557
0.878961 0.786966 0.737262
1.14603 0.686174 0.740667
1.40017 0.574476 0.743989
1.6436 0.455995 0.747017
1.87856 0.333777 0.749675
2.10719 0.210025 0.751956
2.33138 0.0862806 0.753843
2.55272 -0.0364635 0.755345
2.77268 -0.157701 0.756449
2.99227 -0.277819 0.757374
0 0 1
0.193037 -0.0284659 1.04342
0.399096 -0.0777758 1.04288
0.603699 -0.150246 1.03415
0.808482 -0.237536 1.02543
1.01486 -0.335817 1.01844
1.22318 -0.442702 1.01307
1.43354 -0.556058 1.009
1.64593 -0.673852 1.00602
1.86042 -0.794264 1.004
2.07694 -0.915728 1.00287
2.2951 -1.03692 1.00255
2.51422 -1.15718 1.00262
0 0.25 1
0.230773 0.232532 1.02014
0.460398 0.176512 1.02011
0.684079 0.0974379 1.01636
0.903199 0.00336348 1.01247
1.11972 -0.101157 1.00931
1.33494 -0.213211 1.00697
1.54974 -0.330509 1.00531
1.76475 -0.451072 1.00421
1.98046 -0.573247 1.00361
2.19717 -0.695624 1.00345
2.41508 -0.817217 1.00362
2.63422 -0.937223 1.00381
0 0.5 1
0.254526 0.481668 0.999374
0.505603 0.422671 0.999484
0.74894 0.339996 0.999693
0.984345 0.24159 0.999827
1.21338 0.132546 1.00013
1.43775 0.0163737 1.00065
1.659 -0.104295 1.0013
1.87833 -0.227395 1.00206
2.09675 -0.351299 1.00284
2.31501 -0.474768 1.00366
2.53365 -0.596957 1.00445
2.75315 -0.716968 1.00518
0 0.75 1
0.276755 0.719787 0.980297
0.54905 0.658271 0.980741
0.811363 0.573644 0.984087
1.06277 0.472662 0.98771
1.3045 0.360733 0.991218
1.53848 0.241846 0.994464
1.76663 0.118955 0.997387
1.9907 -0.00575903 0.999943
2.2122 -0.130695 1.0021
2.43232 -0.254689 1.00387
2.65191 -0.376981 1.00529
2.87163 -0.497093 1.00654
0 1 1
0.309101 0.947869 0.964705
0.601401 0.884382 0.964755
0.881658 0.797981 0.970472
1.14795 0.695019 0.977057
1.40137 0.581238 0.983375
1.64405 0.46091 0.989104
1.87836 0.337127 0.994089
2.10646 0.212098 0.998308
2.33024 0.0873195 1.00177
2.55138 -0.0361502 1.00441
2.77121 -0.157754 1.00622
2.99076 -0.277701 1.00748
0 0 0.125
0.0966304 -0.0220195 0.104914
0.0968138 -0.0155347 -0.0304325
0 0.125 0
0 0.125 0.125
0.107504 0.120593 -0.0232247
0.214735 0.104457 -0.0311635
0.118113 0.247354 -0.0153636
0.111489 0.113625 0.108341
0 0.125 0.25
0.117514 0.242629 0.114227
0 0.25 0.125
0.196925 -0.0403224 0.0940413
0.21791 0.0946765 0.102122
0.10041 -0.0264696 0.238696
0.112006 0.10979 0.239856
0.233257 0.22562 0.109659
0.119043 0.239317 0.242839
0.218553 0.08901 0.235096
0.29643 -0.0589583 0.0925099
0.297874 -0.0470057 -0.0415334
0.324865 0.0817921 -0.030628
0.434327 0.0516913 -0.0302995
0.347155 0.209296 -0.020875
0.323886 0.0722986 0.101237
0.346582 0.200612 0.108563
0.397101 -0.0857493 0.0932944
0.430927 0.0425747 0.101554
0.296736 -0.0665352 0.228704
0.323617 0.0658203 0.233878
0.458952 0.16961 0.108881
0.34612 0.194833 0.238944
0.429563 0.036225 0.233774
0.498298 -0.117805 0.0967666
0.504358 -0.108815 -0.0362417
0.541852 0.0162529 -0.0268912
0.648789 -0.0240897 -0.0239959
0.574348 0.140905 -0.0182272
0.537131 0.00864213 0.104073
0.570714 0.133359 0.110555
0.600187 -0.154387 0.0996334
0.643649 -0.0307166 0.106422
0.497044 -0.124177 0.230766
0.534964 0.00262779 0.235618
0.681495 0.0928523 0.112479
0.568708 0.12778 0.240099
0.641107 -0.035913 0.237006
0.70279 -0.19521 0.103573
0.708789 -0.189067 -0.0277103
0.754705 -0.0676085 -0.0205869
0.860593 -0.114725 -0.0176691
0.796113 0.0539841 -0.0136613
0.749587 -0.0730221 0.109224
0.791772 0.0483514 0.114435
0.805806 -0.23906 0.10632
0.855846 -0.119357 0.111533
0.700852 -0.199905 0.23529
0.746846 -0.0777076 0.239225
[...]
POINT_DATA 2025
SCALARS scalars float 1
LOOKUP_TABLE default
0 0.075957 0.130922 0.209108 0.302613 0.406517 0.518231 0.635707 0.757047 0.880546 1.00469 1.12841 1.25137 0 0.0310295 0.0838939 0.164298 0.262181 0.371325 0.48826 0.610467 0.735851 0.862624 0.989339 1.11504 1.23921 0 0.0177681 0.0765396 0.158701 0.257058 0.367006 0.485009 0.608259 0.7345 0.861894 0.989039 1.11497 1.23899 0 0.0448878 0.105748 0.186888 0.283492 0.391528 0.507605 0.628936 0.753285 0.878861 1.00426 1.12857 1.25129 0 0.0865519 0.158346 0.24269 0.338908 0.444314 0.556518 0.673356 0.793055 0.91411 1.03533 1.15595 1.276 0 0.0733482 0.141464 0.221673 0.313286 0.414804 0.524406 0.640157 0.760134 0.882596 1.00608 1.12945 1.25226 0 0.0344088 0.0965539 0.177196 0.272688 0.379372 0.494254 0.614816 0.738917 0.864713 0.990779 1.11607 1.23998 0 0.0278659 0.0891257 0.170262 0.266647 0.374593 0.490823 0.612599 0.737641 0.864097 0.990566 1.11604 1.23981 0 0.0461947 0.113698 0.196261 0.292163 0.398852 0.51348 0.633458 0.756609 0.88119 1.00586 1.12967 1.25219 0 0.0852805 0.162103 0.249264 0.345923 0.450736 0.561901 0.677613 0.796205 0.916263 1.0367 1.15684 1.27675 0 0.0745058 0.144689 0.225961 0.317345 0.418225 0.527186 0.642372 0.761896 0.884017 1.00724 1.13047 1.25322 0 0.0356025 0.100343 0.18169 0.276732 0.382698 0.496928 0.616947 0.740612 0.866084 0.991907 1.11704 1.24092 0 0.0299508 0.0927968 0.174215 0.270223 0.377611 0.493313 0.614616 0.739263 0.865411 0.991638 1.11696 1.24071 0 0.0470258 0.116025 0.199279 0.295162 0.401548 0.515781 0.635365 0.758167 0.88245 1.00687 1.13053 1.25301 0 0.086003 0.163119 0.251022 0.347969 0.452721 0.563692 0.679139 0.797462 0.917281 1.03753 1.15756 1.27749 0 0.0732624 0.142792 0.223453 0.315182 0.416756 0.526405 0.642181 0.762144 0.884591 1.00802 1.13131 1.25401 0 0.0344555 0.0973129 0.178472 0.274198 0.381019 0.495992 0.616605 0.740715 0.866527 0.99256 1.1178 1.24162 0 0.0283991 0.0897292 0.17106 0.267674 0.375823 0.492213 0.614092 0.739189 0.865681 0.992146 1.11759 1.2413 0 0.0466951 0.113969 0.196646 0.292791 0.399714 0.51453 0.634646 0.757902 0.88254 1.00722 1.13102 1.25347 0 0.0853115 0.162011 0.249353 0.346266 0.451286 0.562645 0.678514 0.797217 0.917344 1.03782 1.15794 1.27786 0 0.077073 0.134423 0.212472 0.306185 0.410373 0.522286 0.639868 0.761233 0.88467 1.00874 1.13232 1.25501 0 0.0328723 0.0858682 0.166999 0.265246 0.374662 0.491791 0.614102 0.739501 0.866257 0.992937 1.11854 1.2423 0 0.0188926 0.0775334 0.160007 0.258884 0.369274 0.487616 0.611109 0.737504 0.864987 0.992172 1.1181 1.24176 0 0.0449096 0.105788 0.187404 0.284617 0.393162 0.509639 0.63127 0.755816 0.881508 1.00697 1.13125 1.2537 0 0.0863503 0.157771 0.242935 0.339747 0.44559 0.558109 0.675213 0.795064 0.916202 1.03743 1.15797 1.27776 0 0.0411476 0.0442936 0 0 0.0294093 0.0513497 0.0170434 0.024279 0 0.0150472 0 0.0734935 0.0497265 0.0378563 0.0224298 0.0333171 0.0141739 0.050063 0.103465 0.0994129 0.0729284 0.102981 0.0535531 0.0771668 0.0593038 0.137646 0.110067 0.104908 0.0800145 0.0916912 0.0632431 0.11448 0.175296 0.166459 0.139509 0.181789 0.121653 0.147303 0.129463 0.216616 0.189482 0.17934 0.152605 0.171887 0.134924 0.194729 0.261194 0.253259 0.228019 0.277875 0.211736 0.234926 0.218405 0.308561 0.284029 0.26553 0.240062 0.268108 0.223412 0.288596 0.358666 0.352548 0.330083 0.384955 0.315679 0.3354 0.320795 0.410887 0.389551 0.362413 0.33962 0.375703 0.324837 0.393176 0.465313 0.460812 0.441379 0.499819 0.428994 0.445297 0.432784 0.521325 0.503149 0.468301 0.448576 0.491395 0.4359 0.505918 0.579009 0.575816 0.559258 0.620146 0.548795 0.562055 0.551525 0.6378 0.622472 0.581296 0.564525 0.612626 0.553871 0.62454 0.697755 0.695592 0.681563 0.743926 0.67279 0.683483 0.674685 0.758371 0.745469 0.69945 0.685302 0.737248 0.676417 0.746994 0.819702 0.818323 0.80641 0.86941 0.799034 0.807663 0.800291 0.881291 0.870367 0.820919 0.808974 0.863461 0.801546 0.871476 0.94322 0.942388 0.932172 0.995124 0.925905 0.932958 0.926712 1.00508 0.995703 0.944081 0.933901 0.989819 0.927619 0.996527 1.06698 1.06647 1.05758 1.12003 1.05219 1.0581 1.05271 1.12866 1.12042 1.06764 1.05879 1.11529 1.05339 1.12106 1.19021 1.18983 1.18189 1.24373 1.17713 1.18228 1.17749 1.25156 1.24401 1.19078 1.18284 1.23925 1.17803 1.24458 0 0 0.00752072 0.0190296 0.00343895 0.00847751 0 0.00740597 0 0.0245579 0.00990264 0.0244833 0.00945003 0.0278874 0.0435691 0.0752553 0.0440822 0.0507864 0.0516457 0.083372 0.055528 0.0842552 0.0558489 0.0885805 0.113972 0.157098 0.115394 0.121424 0.122697 0.164305 0.126899 0.165408 0.127566 0.169396 0.204834 0.255641 0.206221 0.211026 0.212322 0.26131 0.215898 0.262431 0.216745 0.265593 0.309499 0.365608 0.310826 0.314314 0.315649 0.369896 0.31825 0.371139 0.319314 0.373291 0.42373 0.483483 0.425144 0.427357 0.428845 0.486643 0.430412 0.488083 0.431747 0.489265 0.544476 0.606584 0.546038 0.547136 0.548804 0.608839 0.54945 0.610461 0.551037 0.610825 0.669312 0.732721 0.671004 0.671203 0.672999 0.734274 0.67292 0.735998 0.674681 0.73575 0.796235 0.860079 0.797998 0.797523 0.799379 0.861094 0.798778 0.862843 0.800619 0.862181 0.92363 0.987244 0.925394 0.92448 0.926314 0.987891 0.925391 0.98959 0.927222 0.988704 1.0503 1.11326 1.05201 1.05086 1.05261 1.11366 1.05154 1.11525 1.05329 1.11429 1.17548 1.23748 1.17705 1.17583 1.17744 1.23768 1.17639 1.23906 1.17798 1.23826 0 0 0.0123662 0.0297894 0.0214596 0.0130924 0 0.0209063 0 0.0330634 0.0133076 0.0450262 0.0195002 0.0348426 0.0556512 0.0877974 0.072383 0.0611556 0.0760533 0.0942845 0.0642123 0.11059 0.0778168 0.0982234 0.126495 0.169103 0.143994 0.132838 0.149655 0.175405 0.137066 0.192422 0.15306 0.17962 0.216414 0.26662 0.233353 0.222123 0.238918 0.271948 0.226148 0.288478 0.242543 0.275716 0.320167 0.375816 0.33613 0.324875 0.34093 0.380069 0.32829 0.395648 0.344189 0.383213 0.433745 0.493145 0.448564 0.437456 0.452456 0.496407 0.440211 0.510826 0.455186 0.498925 0.553966 0.615748 0.567572 0.556789 0.570594 0.618167 0.558942 0.631334 0.572781 0.620124 0.678275 0.74135 0.690657 0.680341 0.692898 0.743063 0.68198 0.754961 0.694585 0.744548 0.804627 0.868119 0.815813 0.806066 0.817383 0.869269 0.807286 0.879936 0.818642 0.87037 0.931394 0.994644 0.941445 0.932346 0.942481 0.995378 0.933247 1.00489 0.943403 0.996199 1.0574 1.11997 1.06639 1.05801 1.06704 1.12043 1.05868 1.12889 1.06772 1.12106 1.18186 1.24348 1.18995 1.18224 1.19036 1.24375 1.1828 1.25147 1.1909 1.24434 0 0 0.0340251 0.0648732 0.0464065 0.0314057 0 0.0475216 0 0.0632433 0.029084 0.0848963 0.0443565 0.0632466 0.095484 0.129975 0.120405 0.0971547 0.121668 0.133272 0.0982651 0.16108 0.121346 0.135556 0.168974 0.211791 0.198154 0.17359 0.202439 0.216561 0.176265 0.247115 0.203633 0.21979 0.258358 0.307798 0.288747 0.263391 0.2938 0.312452 0.266469 0.343409 0.295731 0.315727 0.360083 0.414447 0.389932 0.364626 0.394667 0.41848 0.367528 0.448274 0.396741 0.421418 0.470866 0.528726 0.4991 0.474653 0.50313 0.531994 0.477157 0.559712 0.505046 0.534455 0.587936 0.648074 0.613952 0.590924 0.617159 0.650588 0.592968 0.675768 0.618795 0.652559 0.708982 0.770418 0.732508 0.711219 0.734913 0.772231 0.712813 0.794718 0.736228 0.773742 0.832138 0.894073 0.853122 0.833701 0.854791 0.895283 0.834895 0.915111 0.855788 0.896394 0.955895 1.01771 0.974445 0.956906 0.975492 1.01846 0.957775 1.03582 0.976212 1.01926 1.07913 1.14043 1.09549 1.07975 1.09608 1.14089 1.08039 1.15613 1.09661 1.14148 1.20126 1.26203 1.21582 1.20164 1.21614 1.26232 1.20216 1.27606 1.21662 1.26287 0 0.0411453 0 0.0216872 0 0.0142013 0 0.0749021 0.0507056 0.0385246 0.0218725 0.0359549 0.0138055 0.0506312 0.10746 0.0817802 0.0653005 0.144107 0.117053 0.107074 0.0824622 0.0995122 0.066093 0.118003 0.182622 0.155513 0.137977 0.224693 0.197876 0.18328 0.156905 0.180411 0.139303 0.199259 0.268731 0.242954 0.226339 0.315913 0.291405 0.269755 0.24446 0.27542 0.227743 0.292762 0.365075 0.342023 0.327263 0.416845 0.395412 0.366138 0.343397 0.381484 0.328521 0.396623 0.470375 0.450439 0.437802 0.525914 0.507626 0.471378 0.451647 0.495814 0.438886 0.508688 0.582865 0.565937 0.555321 0.641226 0.625812 0.583775 0.566977 0.615933 0.556261 0.626738 0.700613 0.686351 0.677505 0.76087 0.747913 0.701428 0.687245 0.73969 0.678317 0.748738 0.82178 0.809751 0.802357 0.883089 0.872143 0.8225 0.810522 0.86525 0.803065 0.872875 0.944728 0.93448 0.928231 1.0064 0.997023 0.945359 0.935152 0.991147 0.928854 0.997673 1.06814 1.05926 1.05386 1.1297 1.12147 1.06872 1.05985 1.11633 1.05442 1.12205 1.19121 1.18326 1.17844 1.25255 1.24496 1.19175 1.18378 1.2402 1.17896 1.24552 0 0.0105151 0 0.0102667 0 0.029492 0.010855 0.0295461 0.0105205 0.0299005 0.0579326 0.05833 0.0914569 0.0589054 0.0919005 0.0589644 0.092542 0.129889 0.130514 0.172448 0.131245 0.173103 0.131558 0.173725 0.218658 0.219493 0.268224 0.220034 0.269073 0.220599 0.269443 0.320533 0.321606 0.375389 0.321762 0.376515 0.322641 0.37647 0.432216 0.433583 0.490886 0.433278 0.492299 0.434504 0.49184 0.550862 0.552473 0.612058 0.55176 0.613693 0.553283 0.612891 0.673993 0.675781 0.736671 0.674764 0.738428 0.676491 0.737399 0.799587 0.80145 0.862864 0.800261 0.864646 0.802078 0.863518 0.926002 0.927843 0.989208 0.926595 0.99093 0.928404 0.9898 1.05201 1.05376 1.11469 1.05254 1.11629 1.05427 1.11523 1.17678 1.17838 1.23863 1.17729 1.24002 1.17886 1.23917 0 0.0140486 0 0.0199431 0 0.0361854 0.013808 0.0463398 0.0193816 0.0362667 0.0664646 0.0793725 0.100712 0.066684 0.115493 0.0794071 0.101306 0.139838 0.155416 0.182324 0.140561 0.198484 0.155854 0.183184 0.228838 0.244998 0.278148 0.229673 0.29427 0.245634 0.279054 0.330619 0.346374 0.385228 0.331419 0.400641 0.347073 0.386092 0.442127 0.457006 0.50054 0.442855 0.514913 0.457696 0.501329 0.560466 0.574237 0.62138 0.56112 0.634557 0.574885 0.622091 0.683163 0.695716 0.7455 0.683751 0.757418 0.696314 0.74614 0.808177 0.819493 0.871075 0.808715 0.881756 0.820046 0.871656 0.933899 0.94403 0.996711 0.934404 1.00622 0.944533 0.997244 1.05916 1.06819 1.12145 1.05964 1.1299 1.06866 1.12195 1.18318 1.19129 1.24469 1.18365 1.2524 1.19173 1.2452 0 0.0303366 0 0.0471548 0 0.0635923 0.0286112 0.0853651 0.0441367 0.0637277 0.0992114 0.122838 0.136869 0.0993266 0.163373 0.121976 0.137194 0.178227 0.205661 0.221732 0.178461 0.250996 0.205039 0.222235 0.268727 0.297982 0.317721 0.269102 0.34769 0.297696 0.318334 0.369641 0.398851 0.423199 0.370101 0.452273 0.398806 0.423841 0.478967 0.50685 0.535939 0.479453 0.563138 0.50697 0.536571 0.59444 0.620251 0.653739 0.594925 0.678538 0.62048 0.654332 0.713967 0.737349 0.774643 0.714434 0.796842 0.737636 0.7752 0.835766 0.856613 0.897056 0.836211 0.916657 0.856933 0.897572 0.958408 0.976798 1.01973 0.958831 1.03692 0.977142 1.02021 1.08084 1.09703 1.14184 1.08126 1.15696 1.09739 1.14229 1.20252 1.21695 1.26319 1.20294 1.27688 1.21734 1.26365 0 0.0411197 0 0.0209472 0 0.0137592 0 0.0748603 0.0503924 0.0374816 0.0216105 0.0357966 0.0131375 0.0497068 0.107773 0.081949 0.065561 0.144743 0.117519 0.10573 0.0807301 0.0998474 0.0637339 0.115468 0.183358 0.156136 0.138532 0.225525 0.19861 0.180997 0.154023 0.181033 0.136029 0.196303 0.269598 0.243734 0.227039 0.316825 0.292239 0.26734 0.241691 0.27617 0.224815 0.29035 0.366011 0.342882 0.328039 0.417807 0.396306 0.364297 0.341356 0.382311 0.32641 0.395017 0.471355 0.451351 0.438635 0.526906 0.508558 0.470256 0.450399 0.496688 0.437589 0.507816 0.583867 0.566875 0.556191 0.642231 0.626764 0.583296 0.566401 0.616829 0.555634 0.626467 0.701624 0.6873 0.678391 0.761872 0.748865 0.701462 0.687196 0.740592 0.678212 0.748911 0.822782 0.810695 0.803248 0.88408 0.873088 0.822917 0.81086 0.866152 0.80335 0.873379 0.945711 0.93541 0.929113 1.00736 0.99795 0.94604 0.935759 0.99203 0.929409 0.99838 1.0691 1.06017 1.05473 1.13063 1.12236 1.06953 1.0606 1.11718 1.05514 1.12284 1.19211 1.18412 1.17927 1.25342 1.2458 1.19257 1.18456 1.24101 1.17971 1.24626 0 0.0104462 0 0.0102818 0 0.0295268 0.00994632 0.029684 0.00954184 0.0281927 0.0583085 0.0586348 0.0917848 0.0564029 0.0922339 0.0563769 0.0893457 0.130449 0.13092 0.172981 0.127968 0.173566 0.128367 0.170513 0.219312 0.219996 0.26888 0.217142 0.269645 0.217741 0.266919 0.32125 0.322203 0.376127 0.31965 0.377175 0.320491 0.374767 0.432989 0.434258 0.491681 0.431944 0.493023 0.433082 0.490853 0.551676 0.553204 0.612887 0.551076 0.614461 0.552489 0.612484 0.674826 0.676549 0.737514 0.67459 0.739219 0.676207 0.737435 0.800434 0.80224 0.863718 0.800479 0.865447 0.802191 0.863889 0.926845 0.928639 0.990048 0.927087 0.991724 0.928808 0.990391 1.05284 1.05454 1.11551 1.0532 1.11707 1.05485 1.11594 1.17758 1.17914 1.2394 1.17799 1.24077 1.17949 1.23983 0 0.0139074 0 0.0195356 0 0.0363315 0.0131327 0.0464042 0.018743 0.0351668 0.0666529 0.0795131 0.101001 0.0646897 0.115739 0.0779655 0.0987028 0.140178 0.155614 0.182683 0.137692 0.19873 0.153396 0.180299 0.229268 0.245278 0.278603 0.226954 0.294612 0.24309 0.276609 0.33114 0.346778 0.385776 0.329291 0.401093 0.344968 0.384296 0.442726 0.45751 0.501161 0.441382 0.515454 0.456163 0.500167 0.561127 0.574817 0.622059 0.560245 0.635163 0.573915 0.621481 0.683869 0.696355 0.746214 0.683378 0.758072 0.695838 0.745978 0.808909 0.820169 0.871809 0.80874 0.882434 0.819969 0.871843 0.934643 0.944718 0.997448 0.934726 1.00691 0.944764 0.997677 1.05989 1.06888 1.12217 1.06015 1.13058 1.06909 1.12251 1.18389 1.19196 1.24538 1.18422 1.25305 1.19223 1.24573 0 0.029803 0 0.0459233 0 0.0635949 0.0278691 0.0850904 0.0423308 0.0633151 0.0992204 0.122648 0.136976 0.0982028 0.163352 0.12103 0.135562 0.178346 0.205691 0.221866 0.17644 0.251045 0.203557 0.22 0.268938 0.298133 0.317958 0.266866 0.34783 0.295931 0.316192 0.369967 0.399118 0.423545 0.368162 0.452525 0.397208 0.422114 0.479391 0.507213 0.536384 0.477991 0.563492 0.505729 0.535345 0.594944 0.620697 0.654254 0.593965 0.678972 0.619658 0.653598 0.714531 0.73785 0.775217 0.713937 0.797334 0.737218 0.774897 0.836369 0.857152 0.897663 0.836101 0.917189 0.856862 0.897615 0.959031 0.977364 1.02035 0.959021 1.03747 0.977337 1.02051 1.08147 1.0976 1.14246 1.08164 1.15751 1.09775 1.14272 1.20314 1.21751 1.2638 1.20337 1.27744 1.21773 1.26407 0 0.0401827 0 0.0218098 0 0.0128735 0 0.0743149 0.049823 0.0459719 0.0314668 0.0343555 0.016781 0.0520054 0.105178 0.0783051 0.0606996 0.139881 0.111469 0.102323 0.0754248 0.0932361 0.0551009 0.105638 0.177289 0.149189 0.131157 0.219167 0.191531 0.170354 0.14285 0.173958 0.123887 0.185045 0.263523 0.237204 0.220417 0.311362 0.286456 0.257156 0.231587 0.270496 0.214453 0.281429 0.361317 0.33795 0.323064 0.413849 0.392213 0.356645 0.33385 0.37829 0.318738 0.388735 0.468178 0.448031 0.435255 0.524374 0.505953 0.465077 0.445309 0.4941 0.432312 0.503744 0.581992 0.564888 0.554121 0.640884 0.625348 0.580145 0.563261 0.61538 0.552278 0.624137 0.700788 0.686357 0.677348 0.761445 0.748366 0.6999 0.685571 0.740012 0.676349 0.747912 0.822725 0.810528 0.802975 0.88432 0.873245 0.822534 0.810356 0.866208 0.802608 0.873327 0.946203 0.935788 0.929388 1.00804 0.998531 0.946467 0.936036 0.992512 0.929467 0.99895 1.0699 1.06087 1.05534 1.13149 1.12314 1.07042 1.06134 1.11789 1.05571 1.12373 1.19298 1.18491 1.18 1.25424 1.24655 1.19359 1.18547 1.24167 1.1805 1.24711 0 0.00792324 0 0.00762692 0 0.0255727 0.0083143 0.0251881 0.00515604 0.0203173 0.0520721 0.0522481 0.0845975 0.0452441 0.0852743 0.0449913 0.0769122 0.123021 0.123646 0.16594 0.115972 0.166775 0.116459 0.159328 0.212894 0.213638 0.263273 0.20721 0.26413 0.20771 0.258281 0.316416 0.317294 0.372095 0.312216 0.373096 0.312781 0.368552 0.429651 0.430755 0.489014 0.426718 0.490232 0.427496 0.486651 0.549578 0.550908 0.611326 0.547657 0.612742 0.548701 0.60989 0.673714 0.675237 0.736806 0.67261 0.738355 0.67388 0.736096 0.800072 0.801695 0.863652 0.799596 0.86524 0.801009 0.863479 0.927027 0.928665 0.990427 0.927006 0.991979 0.928486 0.990634 1.05336 1.05494 1.11613 1.05365 1.11759 1.05513 1.11658 1.17822 1.17969 1.23997 1.17868 1.24125 1.18007 1.24039 0 0.0124683 0 0.0188367 0 0.033656 0.0131392 0.0456097 0.0233885 0.0295341 0.061518 0.0760165 0.0949677 0.0557607 0.110932 0.0721792 0.0884799 0.13365 0.149956 0.176365 0.127116 0.193034 0.144116 0.170333 0.223301 0.239646 0.27324 0.217614 0.289481 0.234141 0.268375 0.326368 0.342047 0.381659 0.321864 0.396989 0.337504 0.377986 0.439211 0.453888 0.498247 0.435844 0.512437 0.450405 0.495633 0.558747 0.57227 0.620187 0.556384 0.633146 0.569772 0.618472 0.682444 0.694751 0.745201 0.680925 0.756909 0.693112 0.744223 0.808253 0.819349 0.871467 0.807426 0.88196 0.81843 0.871071 0.934567 0.944509 0.997594 0.934284 1.00695 0.944149 0.997628 1.06021 1.06908 1.1226 1.06031 1.13091 1.06911 1.12292 1.18436 1.19232 1.24577 1.18468 1.25337 1.19252 1.24607 0 0.0296932 0 0.0436566 0 0.0634479 0.0339652 0.0852808 0.0479048 0.0638665 0.0968297 0.120888 0.133302 0.0941911 0.160849 0.118061 0.129451 0.17373 0.202245 0.216951 0.168627 0.247239 0.196791 0.212113 0.263965 0.294155 0.313238 0.258747 0.343918 0.288428 0.308778 0.365586 0.395435 0.419605 0.361048 0.449118 0.390354 0.415934 0.475924 0.504208 0.533388 0.472296 0.560832 0.500081 0.530599 0.592438 0.618484 0.652191 0.589737 0.677113 0.615376 0.650245 0.712913 0.736413 0.773981 0.711069 0.79622 0.734265 0.772779 0.835511 0.856399 0.897109 0.834412 0.916706 0.855094 0.896541 0.958771 0.977153 1.02031 0.958283 1.03744 0.976541 1.02021 1.08161 1.09773 1.1427 1.08156 1.1577 1.0976 1.14287 1.20341 1.2177 1.26403 1.20355 1.27759 1.2177 1.26417 
