# vtk DataFile Version 5.1
vtk output
ASCII

DATASET UNSTRUCTURED_GRID
POINTS 2025 float
0.011 0 0
0.170779 -0.0395636 -0.0584417
0.348425 -0.116028 -0.0600763
0.510184 -0.226159 -0.0508651
0.6666 -0.356839 -0.0428744
0.81922 -0.50434 -0.0364003
0.968419 -0.66639 -0.0306212
1.11518 -0.840708 -0.025248
1.26111 -1.02494 -0.0205242
1.4078 -1.21671 -0.0166408
1.55704 -1.41293 -0.0144248
1.71 -1.61041 -0.0145831
1.86588 -1.80684 -0.0156033
0.011 0.25 0
0.233737 0.21948 -0.0299703
0.44776 0.126422 -0.0319289
0.641446 0.00157348 -0.0281534
0.82044 -0.144634 -0.024841
0.988691 -0.306653 -0.0221289
1.14876 -0.481341 -0.019869
1.30276 -0.666081 -0.0180351
1.45286 -0.858352 -0.0166738
1.60145 -1.05541 -0.0162247
1.75098 -1.25433 -0.0170868
1.90349 -1.4525 -0.0190181
2.0597 -1.64797 -0.0207183
0.011 0.5 0
0.265015 0.463234 -0.00112113
0.508723 0.366138 -0.00145853
0.734711 0.232691 -0.00283985
0.941563 0.074774 -0.00409898
1.13154 -0.100307 -0.00548635
1.30786 -0.287575 -0.00714339
1.47363 -0.483318 -0.00909678
1.63195 -0.68433 -0.0115739
1.78586 -0.887624 -0.0146389
1.93859 -1.09049 -0.0183506
2.09281 -1.29069 -0.0224423
2.25034 -1.48628 -0.0257471
0.011 0.75 0
0.293881 0.692349 0.0335394
0.565588 0.588071 0.031477
0.821087 0.448319 0.0256952
1.05406 0.281905 0.0194214
1.26572 0.0968291 0.0131276
1.45911 -0.100544 0.00677417
1.63791 -0.305291 0.000313414
1.80578 -0.513486 -0.00629433
1.96657 -0.722007 -0.0130958
2.1239 -0.928104 -0.0197442
2.2809 -1.12971 -0.0258008
2.43956 -1.32586 -0.0304227
0.011 1 0
0.331734 0.898245 0.0577223
0.638819 0.789801 0.0595801
0.920584 0.642864 0.0506445
1.17643 0.468174 0.0403413
1.40722 0.274499 0.0296899
1.61593 0.0692634 0.0190549
1.80659 -0.141921 0.00844925
1.98343 -0.354727 -0.00214075
2.1506 -0.565736 -0.0124461
2.31219 -0.772477 -0.0220785
2.4716 -0.973128 -0.0298743
2.63059 -1.16883 -0.0350458
0.011 0 0.25
0.17298 -0.0672043 0.224633
0.336115 -0.139581 0.219511
0.496198 -0.242869 0.222364
0.653886 -0.368652 0.225632
0.80846 -0.512661 0.228148
0.960015 -0.671947 0.230214
1.10939 -0.84399 0.231993
1.25791 -1.0265 0.233544
1.40722 -1.21696 0.234549
1.55878 -1.41231 0.234694
1.71288 -1.60932 0.2338
1.86937 -1.80474 0.232198
0.011 0.25 0.25
0.233966 0.199319 0.23485
0.438048 0.106484 0.231238
0.628617 -0.0143328 0.23221
0.808135 -0.156466 0.233262
0.978149 -0.315207 0.233862
1.14044 -0.487238 0.234122
1.29694 -0.669771 0.234123
1.44965 -0.860304 0.233835
1.60076 -1.05605 0.233104
1.75239 -1.25396 0.231702
1.9062 -1.4513 0.229756
2.06321 -1.64614 0.227728
0.011 0.5 0.25
0.258805 0.445325 0.247568
0.498889 0.346063 0.245705
0.72352 0.215184 0.244047
0.930945 0.0608714 0.242437
1.12253 -0.110865 0.240744
1.30095 -0.295352 0.238882
1.46914 -0.488765 0.236796
1.62998 -0.687902 0.234508
1.78625 -0.889712 0.231882
1.94087 -1.09131 0.228949
2.09624 -1.29042 0.225927
2.25439 -1.48532 0.223425
0.011 0.75 0.25
0.281589 0.676 0.261896
0.555653 0.569046 0.261484
0.811516 0.430795 0.257832
1.04539 0.267326 0.253361
1.2586 0.0852649 0.248842
1.45397 -0.109451 0.24434
1.63496 -0.31194 0.239878
1.8052 -0.518239 0.235325
1.96814 -0.725094 0.23068
2.12718 -0.929604 0.226231
2.28506 -1.12982 0.222257
2.44409 -1.32541 0.219235
0.011 1 0.25
0.3203 0.879571 0.270351
0.628422 0.771859 0.274234
0.911815 0.626933 0.268946
1.16883 0.4548 0.262388
1.401 0.263705 0.255595
1.61143 0.0607991 0.24887
1.80416 -0.148289 0.24219
1.98315 -0.359191 0.235554
2.15236 -0.568387 0.229118
2.31554 -0.773233 0.223117
2.47585 -0.972346 0.217997
2.63504 -1.16742 0.214451
0.011 0 0.5
0.17252 -0.0743452 0.504395
0.334867 -0.147694 0.5011
0.494207 -0.249317 0.499152
0.651884 -0.373328 0.49697
0.807036 -0.515922 0.494676
0.959386 -0.674163 0.492452
1.10972 -0.845295 0.490238
1.25924 -1.02711 0.48815
1.40941 -1.21689 0.486236
1.56146 -1.41172 0.48442
1.7161 -1.60824 0.48254
1.87294 -1.80348 0.480429
0.011 0.25 0.5
0.233807 0.193976 0.500118
0.436508 0.10002 0.49732
0.6261 -0.020047 0.495329
0.805475 -0.160797 0.493125
0.976016 -0.318205 0.490852
1.13914 -0.489142 0.488609
1.29667 -0.670783 0.486379
1.45035 -0.860655 0.484244
1.60244 -1.05575 0.482207
1.7548 -1.25322 0.480146
1.9092 -1.4502 0.478199
2.06648 -1.64474 0.476083
0.011 0.5 0.5
0.257152 0.441544 0.497927
0.496318 0.34079 0.495489
0.720706 0.210133 0.493021
0.928344 0.056738 0.490451
1.12059 -0.113892 0.487839
1.29985 -0.297356 0.485315
1.46899 -0.489938 0.482803
1.63073 -0.688347 0.480456
1.78794 -0.889527 0.478182
1.94335 -1.09058 0.476003
2.09927 -1.28926 0.474057
2.25776 -1.48409 0.472187
0.011 0.75 0.5
0.27882 0.672133 0.495876
0.552112 0.564071 0.493224
0.808381 0.425943 0.490689
1.04285 0.263212 0.487764
1.25678 0.0821391 0.484822
1.45299 -0.111617 0.481956
1.63491 -0.313242 0.479244
1.80609 -0.518825 0.476637
1.96991 -0.725018 0.474166
2.12972 -0.928941 0.471972
2.28828 -1.12881 0.469898
2.44764 -1.32418 0.468184
0.011 1 0.5
0.317921 0.873691 0.492023
0.624391 0.766243 0.490748
0.908202 0.62219 0.487601
1.16593 0.450999 0.484475
1.39888 0.26091 0.481359
1.61023 0.0589317 0.478318
1.80391 -0.149311 0.475443
1.98389 -0.359483 0.472693
2.15404 -0.568005 0.470077
2.31804 -0.77223 0.467566
2.47899 -0.970961 0.465413
2.63845 -1.16608 0.463812
0.011 0 0.75
0.177266 -0.0660536 0.783983
0.339431 -0.139537 0.782759
0.499918 -0.242104 0.775777
0.658224 -0.36744 0.768345
0.813464 -0.511237 0.76132
0.965544 -0.670414 0.754734
1.11532 -0.842367 0.748507
1.26417 -1.02481 0.742798
1.41377 -1.21511 0.737844
1.56531 -1.41029 0.734051
1.71976 -1.60704 0.731158
1.87707 -1.80226 0.728456
0.011 0.25 0.75
0.235306 0.199544 0.765439
0.439369 0.107387 0.763134
0.630548 -0.0129434 0.758266
0.810906 -0.154743 0.752945
0.981854 -0.313283 0.747819
1.14491 -0.485209 0.743029
1.30202 -0.667721 0.738584
1.4552 -0.858195 0.734595
1.60663 -1.05371 0.731333
1.75852 -1.25153 0.728698
1.91272 -1.44864 0.726694
2.07015 -1.64312 0.724658
0.011 0.5 0.75
0.258708 0.444906 0.747714
0.498799 0.346463 0.745136
0.724292 0.216377 0.741848
0.93265 0.0625519 0.738328
1.12529 -0.108856 0.73483
1.30466 -0.29312 0.731595
1.47353 -0.486434 0.728691
1.63488 -0.685407 0.72632
1.79162 -0.887039 0.724496
1.9466 -1.08854 0.723174
2.10242 -1.28731 0.722122
2.2612 -1.48193 0.721081
0.011 0.75 0.75
0.280217 0.674931 0.729022
0.554781 0.569018 0.724984
0.811389 0.431493 0.723386
1.04618 0.268619 0.721967
1.26037 0.0870521 0.720575
1.45672 -0.107265 0.719408
1.6386 -0.309466 0.71849
1.8096 -0.515571 0.717851
1.9731 -0.722186 0.717604
2.13274 -0.926493 0.717498
2.29097 -1.12648 0.717604
2.45049 -1.3217 0.717574
0.011 1 0.75
0.319314 0.879517 0.712223
0.627156 0.772129 0.707408
0.910944 0.627894 0.706245
1.16878 0.45636 0.706361
1.40192 0.265821 0.70687
1.61345 0.0633223 0.707574
1.80718 -0.1455 0.708516
1.98711 -0.356184 0.709632
2.15701 -0.565121 0.710972
2.3208 -0.769573 0.712069
2.4815 -0.968238 0.712776
2.64091 -1.16334 0.713058
0.011 0 1
0.175823 -0.0358521 1.0641
0.352135 -0.113527 1.06235
0.517932 -0.223588 1.04982
0.676679 -0.354382 1.0373
0.830718 -0.501883 1.026
0.980942 -0.663866 1.01561
1.12842 -0.838055 1.00593
1.27463 -1.02233 0.996854
1.42161 -1.21381 0.989226
1.57099 -1.4098 0.983529
1.7241 -1.60721 0.979629
1.88141 -1.80226 0.97608
0.011 0.25 1
0.234993 0.218729 1.03076
0.449494 0.128555 1.02733
0.645658 0.00468784 1.01932
0.827019 -0.141089 1.01119
0.997192 -0.302941 1.00369
1.15878 -0.477593 0.996776
1.31393 -0.662322 0.990445
1.46484 -0.85451 0.984896
1.61404 -1.05127 0.980466
1.7638 -1.24988 0.977416
1.91655 -1.44759 0.975443
2.07397 -1.64173 0.972713
0.011 0.5 1
0.263979 0.462335 0.996655
0.509222 0.367251 0.992414
0.737143 0.23539 0.988519
0.946159 0.0782931 0.984533
1.13824 -0.0963423 0.980652
1.31635 -0.283372 0.977198
1.48354 -0.478984 0.974244
1.64294 -0.67977 0.972042
1.79774 -0.882735 0.970796
1.95096 -1.08529 0.970369
2.10538 -1.28486 0.970665
2.26399 -1.4793 0.969939
0.011 0.75 1
0.28905 0.69175 0.960201
0.564553 0.589679 0.954856
0.821761 0.451129 0.954649
1.05686 0.285571 0.955002
1.27067 0.101118 0.955515
1.46608 -0.0958361 0.956273
1.64661 -0.300328 0.957376
1.81593 -0.508374 0.958938
1.97779 -0.716574 0.960979
2.1358 -0.922169 0.963314
2.29307 -1.12285 0.965591
2.45245 -1.31786 0.966881
0.011 1 1
0.327364 0.901119 0.927034
0.633048 0.791988 0.920922
0.917285 0.646284 0.92301
1.17568 0.472611 0.926916
1.40894 0.279754 0.931381
1.62002 0.0750396 0.936165
1.81288 -0.135796 0.941175
1.99155 -0.348288 0.946459
2.15999 -0.558847 0.952012
2.32232 -0.764572 0.957054
2.48233 -0.96386 0.960773
2.64133 -1.15827 0.962726
0.011 0 0.125
0.090651 -0.0253556 0.095479
0.0931257 -0.0160455 -0.0425293
0.011 0.125 0
0.011 0.125 0.125
0.112258 0.120644 -0.0316392
0.207317 0.0931508 -0.0429123
0.12641 0.245951 -0.0249106
0.11586 0.109445 0.100593
0.011 0.125 0.25
0.124371 0.236435 0.107922
0.011 0.25 0.125
0.175912 -0.0559871 0.0784076
0.211361 0.0783997 0.0900684
0.0959811 -0.0352061 0.232267
0.115797 0.104307 0.233668
0.236285 0.207427 0.099893
0.126617 0.231499 0.237182
0.209021 0.0700621 0.229058
0.256406 -0.0853081 0.0787318
0.261989 -0.0659483 -0.0579531
0.308679 0.0551457 -0.04256
0.403323 0.00599158 -0.0432763
0.342489 0.179545 -0.0305814
0.30419 0.0412448 0.0907949
0.340201 0.165524 0.0993792
0.339803 -0.127537 0.077845
0.395841 -0.00660608 0.089132
0.256438 -0.0958383 0.220342
0.30245 0.0325843 0.226265
0.441581 0.115286 0.0987765
0.337664 0.157161 0.232412
0.392705 -0.0152768 0.225845
0.419467 -0.177322 0.0829993
0.431351 -0.164463 -0.0529618
0.495263 -0.0500596 -0.0393723
0.581266 -0.113211 -0.0374657
0.54628 0.0690395 -0.0288731
0.484955 -0.0605452 0.0928557
0.53887 0.0571644 0.100322
0.501057 -0.233091 0.08408
0.57174 -0.121589 0.0935423
0.417539 -0.186062 0.221882
0.481327 -0.0682821 0.227234
0.633266 -0.00681952 0.10147
0.534573 0.0495774 0.232378
0.567491 -0.128775 0.227706
0.579242 -0.294943 0.0892668
0.590629 -0.286483 -0.0448879
0.667269 -0.179969 -0.0339544
0.748235 -0.252408 -0.0323365
0.7326 -0.0677267 -0.0253811
0.656678 -0.187008 0.0969842
0.724262 -0.0764933 0.103038
[...]
POINT_DATA 2025
SCALARS Displacements float 1
LOOKUP_TABLE default
0.011 0.106098 0.200117 0.333537 0.490232 0.664271 0.852989 1.05376 1.26367 1.47985 1.69875 1.91709 2.13334 0.011 0.0457623 0.137913 0.272566 0.434275 0.615333 0.811557 1.01958 1.23616 1.45773 1.68058 1.90143 2.11823 0.011 0.0397301 0.134154 0.267761 0.429242 0.611909 0.810705 1.02146 1.24026 1.46326 1.68677 1.90762 2.1232 0.011 0.0798376 0.177521 0.311006 0.471607 0.653492 0.851553 1.06123 1.27834 1.4991 1.71985 1.93753 2.1504 0.011 0.142711 0.258852 0.399011 0.561776 0.742936 0.938123 1.14335 1.35483 1.56894 1.78254 1.99289 2.20034 0.011 0.105319 0.217418 0.35237 0.506254 0.676946 0.862257 1.05973 1.26676 1.48038 1.69727 1.91463 2.12972 0.011 0.0552734 0.157439 0.291414 0.449785 0.627394 0.820399 1.02542 1.23932 1.45861 1.67963 1.89917 2.11504 0.011 0.0554333 0.154001 0.286106 0.444589 0.624091 0.819957 1.02797 1.24429 1.46516 1.68682 1.90619 2.12088 0.011 0.0813349 0.189667 0.325173 0.484815 0.664792 0.860701 1.0682 1.2832 1.50191 1.72065 1.93666 2.14879 0.011 0.140923 0.262921 0.40709 0.570878 0.751639 0.945789 1.14959 1.35937 1.57156 1.783 1.99156 2.19822 0.011 0.10747 0.221549 0.357197 0.510458 0.680016 0.864185 1.06046 1.26642 1.47905 1.6953 1.91199 2.12678 0.011 0.0583172 0.162888 0.29715 0.454578 0.630879 0.822607 1.02642 1.23932 1.45761 1.67791 1.89686 2.11236 0.011 0.0589285 0.159316 0.291427 0.449118 0.627501 0.822223 1.02919 1.24455 1.4645 1.68535 1.90409 2.11856 0.011 0.0831318 0.193213 0.329406 0.488823 0.668068 0.863087 1.06965 1.28377 1.5016 1.71952 1.93494 2.1467 0.011 0.143635 0.264954 0.409783 0.573738 0.754165 0.94775 1.15084 1.35985 1.57122 1.78184 1.98981 2.19634 0.011 0.103963 0.215235 0.349028 0.502155 0.672351 0.857392 1.0547 1.26164 1.4751 1.69199 1.90901 2.12357 0.011 0.0547734 0.155522 0.288923 0.446746 0.623854 0.816496 1.02129 1.23496 1.45394 1.67477 1.89392 2.1093 0.011 0.0558251 0.153618 0.284902 0.442756 0.621681 0.817028 1.02467 1.24059 1.46104 1.68239 1.90122 2.11535 0.011 0.0835977 0.190738 0.325459 0.484402 0.663682 0.858902 1.06577 1.28022 1.49835 1.71656 1.93208 2.14358 0.011 0.144041 0.264401 0.407774 0.570907 0.750971 0.944477 1.14768 1.35685 1.56837 1.77903 1.98682 2.19325 0.011 0.104387 0.196569 0.326081 0.481159 0.654492 0.842842 1.04342 1.25353 1.46958 1.68845 1.90683 2.12131 0.011 0.046358 0.134337 0.26728 0.427783 0.608005 0.803637 1.01123 1.22742 1.44849 1.67097 1.89132 2.1064 0.011 0.0403139 0.133285 0.265171 0.425411 0.607033 0.804934 1.01493 1.23294 1.45511 1.67793 1.89793 2.11193 0.011 0.0806339 0.178628 0.310693 0.470055 0.650734 0.847645 1.05626 1.27243 1.49213 1.71176 1.92809 2.13938 0.011 0.145212 0.259276 0.398781 0.560663 0.740759 0.934896 1.13905 1.34938 1.56218 1.77402 1.98241 2.18819 0.011 0.0519061 0.0555173 0.011 0.011 0.0343856 0.0683934 0.0252769 0.0303512 0.011 0.0218191 0.011 0.103897 0.0698911 0.0489494 0.0279213 0.0512925 0.0225657 0.0716662 0.153241 0.143106 0.105306 0.159318 0.0834029 0.114887 0.0948871 0.210125 0.171627 0.155311 0.119864 0.149159 0.101599 0.178251 0.274683 0.259524 0.221422 0.294312 0.199442 0.234676 0.212634 0.34348 0.305896 0.280089 0.241905 0.283084 0.220583 0.313382 0.419215 0.406146 0.370555 0.454828 0.349102 0.381836 0.36028 0.497938 0.463882 0.425042 0.388754 0.442644 0.367529 0.470532 0.582696 0.572426 0.540791 0.633477 0.521224 0.549552 0.530095 0.669873 0.640208 0.587849 0.555378 0.621617 0.536021 0.645654 0.762253 0.754487 0.727282 0.826819 0.710373 0.733767 0.717165 0.856595 0.831473 0.766338 0.738349 0.815929 0.721717 0.835646 0.955296 0.949798 0.926948 1.03192 0.912924 0.931377 0.917852 1.05548 1.03469 0.958195 0.934707 1.02219 0.921077 1.0376 1.15916 1.15566 1.13686 1.24575 1.12563 1.13946 1.12887 1.26373 1.24691 1.16087 1.1416 1.23714 1.13088 1.24866 1.371 1.3692 1.35395 1.46508 1.34514 1.35495 1.34689 1.47839 1.46486 1.3716 1.35604 1.4573 1.34783 1.46561 1.58764 1.58722 1.57471 1.68629 1.56782 1.57444 1.56828 1.69615 1.68504 1.58731 1.57467 1.67906 1.56837 1.68497 1.80572 1.80625 1.79563 1.90607 1.7901 1.7945 1.78951 1.9139 1.90423 1.80487 1.79412 1.89914 1.78901 1.90363 2.0223 2.02348 2.01386 2.1224 2.00914 2.01207 2.00757 2.12904 2.11999 2.02114 2.01127 2.11477 2.0068 2.11904 0.011 0.011 0.010286 0.035834 0.0137381 0.0177807 0.011 0.0202819 0.011 0.0451685 0.0202382 0.0481246 0.0228823 0.0511931 0.0755921 0.129774 0.0798554 0.0880871 0.0930509 0.141864 0.0956924 0.145529 0.09982 0.150076 0.192112 0.264175 0.195733 0.204334 0.208615 0.274798 0.212523 0.278004 0.216378 0.282603 0.341478 0.426112 0.344308 0.351556 0.355344 0.43449 0.358859 0.437612 0.362401 0.44108 0.514297 0.608394 0.517133 0.522159 0.526145 0.6147 0.528146 0.618388 0.531966 0.619956 0.704934 0.806338 0.708444 0.710817 0.715578 0.810808 0.71549 0.815435 0.720108 0.814819 0.90928 1.01617 0.913722 0.913397 0.919133 1.01898 0.916835 1.02456 0.922452 1.02181 1.12369 1.23425 1.12899 1.12621 1.13281 1.23558 1.12854 1.24186 1.13503 1.23737 1.34451 1.45688 1.35037 1.34564 1.35273 1.45696 1.34697 1.46354 1.35401 1.45785 1.56797 1.68033 1.57406 1.56797 1.57513 1.67944 1.56846 1.68593 1.57562 1.67955 1.79056 1.90141 1.7966 1.78971 1.79658 1.89976 1.78949 1.90588 1.79639 1.8993 2.00951 2.11745 2.01515 2.00779 2.01401 2.11519 2.00724 2.12048 2.01355 2.11449 0.011 0.011 0.0280752 0.0580459 0.0397604 0.0280427 0.011 0.0404417 0.011 0.0621132 0.0302966 0.078738 0.0374339 0.0655984 0.0993263 0.152236 0.123145 0.107343 0.129034 0.161323 0.112816 0.184947 0.13204 0.167778 0.214129 0.284758 0.239915 0.224025 0.249281 0.293809 0.231057 0.319355 0.254509 0.300597 0.361612 0.445488 0.387656 0.370688 0.396978 0.453158 0.377414 0.479199 0.402473 0.459247 0.533782 0.627765 0.55954 0.541351 0.567805 0.633835 0.54711 0.659824 0.572764 0.63893 0.724806 0.826358 0.750097 0.730787 0.757028 0.830906 0.735444 0.856511 0.761182 0.834976 0.929854 1.03681 0.954493 0.934331 0.960031 1.03992 0.937908 1.0648 0.963323 1.04302 1.14471 1.25504 1.16839 1.14778 1.17252 1.25685 1.15034 1.28057 1.17498 1.25901 1.36535 1.47717 1.38777 1.36714 1.39055 1.47784 1.36879 1.5 1.3922 1.47915 1.58804 1.69954 1.60891 1.58868 1.61036 1.69926 1.5895 1.71951 1.61125 1.69972 1.80934 1.91908 1.82841 1.80898 1.82863 1.91798 1.80907 1.93616 1.82881 1.91776 2.02644 2.13326 2.04381 2.02524 2.04289 2.13163 2.02487 2.14822 2.04272 2.13116 0.011 0.011 0.0612232 0.109735 0.0770255 0.0555493 0.011 0.0795213 0.011 0.106813 0.0531784 0.13987 0.0747917 0.106494 0.161016 0.216057 0.199761 0.161155 0.198931 0.219742 0.162987 0.262597 0.19992 0.222647 0.280878 0.351272 0.327008 0.286155 0.331151 0.357135 0.289992 0.405241 0.333404 0.361448 0.429 0.512012 0.478744 0.435658 0.484342 0.517879 0.440057 0.568407 0.487535 0.522458 0.600187 0.693021 0.65108 0.606719 0.656677 0.698172 0.610905 0.748996 0.660088 0.702485 0.789322 0.889487 0.83961 0.795161 0.84462 0.893684 0.798779 0.943241 0.847851 0.897488 0.991733 1.097 1.04013 0.996649 1.04432 1.10018 0.999551 1.14729 1.04714 1.10333 1.20318 1.31152 1.24873 1.20704 1.25198 1.31367 1.20918 1.3574 1.25421 1.31608 1.41981 1.52929 1.46174 1.42248 1.46392 1.53041 1.42388 1.57004 1.46545 1.53199 1.6379 1.74686 1.67573 1.6393 1.67673 1.74695 1.63999 1.78204 1.67747 1.74761 1.85426 1.96132 1.88777 1.85435 1.88744 1.96053 1.85443 1.99122 1.88758 1.96034 2.06666 2.17163 2.09646 2.06577 2.09497 2.17043 2.06534 2.19779 2.09484 2.16982 0.011 0.0512497 0.011 0.0272994 0.011 0.0222006 0.011 0.106433 0.0732356 0.0499225 0.026963 0.0577266 0.0220815 0.0737769 0.159533 0.123151 0.104879 0.220159 0.182915 0.158313 0.123823 0.162158 0.106192 0.183326 0.284883 0.246627 0.225047 0.355132 0.318225 0.284581 0.247436 0.296224 0.226314 0.318986 0.429434 0.393125 0.371573 0.508413 0.474611 0.429407 0.393896 0.453759 0.372692 0.47531 0.59137 0.558832 0.539199 0.678323 0.648673 0.591263 0.559369 0.630269 0.539975 0.649161 0.768889 0.740765 0.723948 0.862827 0.837618 0.768624 0.741039 0.822192 0.724361 0.837889 0.959796 0.936128 0.922411 1.05949 1.03859 0.959352 0.936136 1.02622 0.922501 1.0386 1.16158 1.14211 1.13141 1.26572 1.24879 1.16093 1.14188 1.2392 1.13123 1.24859 1.37154 1.35575 1.34765 1.47859 1.46501 1.3707 1.35531 1.45766 1.34721 1.46453 1.5866 1.57374 1.56759 1.69495 1.68388 1.58559 1.5731 1.67809 1.56693 1.68319 1.80365 1.7927 1.78777 1.91174 1.90204 1.8025 1.79192 1.89714 1.78693 1.90118 2.01959 2.00955 2.00519 2.1262 2.11725 2.0183 2.00863 2.11224 2.00426 2.11624 0.011 0.021852 0.011 0.0248069 0.011 0.0544467 0.0221281 0.0570383 0.0244579 0.0550382 0.0995348 0.103429 0.154884 0.100839 0.157995 0.10446 0.155901 0.216965 0.220273 0.287434 0.21839 0.290252 0.221776 0.288462 0.362844 0.365915 0.445166 0.364079 0.448115 0.367299 0.446006 0.531296 0.534777 0.623067 0.532183 0.626733 0.535838 0.623612 0.717733 0.72215 0.816951 0.718259 0.821666 0.722836 0.817219 0.918203 0.923747 1.02303 0.918423 1.02882 0.924101 1.02305 1.12909 1.13563 1.23779 1.12908 1.24434 1.13569 1.23761 1.34682 1.35394 1.45753 1.34655 1.46442 1.35374 1.45712 1.5677 1.57497 1.67865 1.5672 1.68544 1.57451 1.67804 1.78827 1.79529 1.89791 1.78756 1.90433 1.79457 1.89714 2.00558 2.01204 2.11286 2.00485 2.1185 2.01128 2.11201 0.011 0.0302136 0.011 0.0390473 0.011 0.0678449 0.0310899 0.0812847 0.0377532 0.0681842 0.115444 0.133784 0.171459 0.116456 0.192402 0.134605 0.172375 0.234262 0.257303 0.304498 0.235903 0.328301 0.258496 0.305621 0.380506 0.40543 0.462755 0.382096 0.487745 0.406674 0.463742 0.549737 0.575366 0.641749 0.551005 0.667155 0.576446 0.642472 0.737458 0.76321 0.837026 0.738335 0.862357 0.764034 0.837483 0.939288 0.964712 1.04432 0.939797 1.0691 0.965267 1.04451 1.15107 1.17571 1.25958 1.15125 1.28336 1.17601 1.25956 1.36889 1.3923 1.47902 1.36879 1.50131 1.39235 1.47879 1.589 1.61073 1.69898 1.58863 1.7194 1.61052 1.69852 1.80802 1.82778 1.91653 1.80745 1.9349 1.82735 1.91591 2.02346 2.04136 2.12975 2.0228 2.14654 2.04077 2.12899 0.011 0.0546046 0.011 0.0788929 0.011 0.107688 0.0531041 0.140581 0.0760524 0.108171 0.163334 0.20084 0.224485 0.164897 0.265206 0.20217 0.225411 0.291913 0.335519 0.364068 0.293205 0.409942 0.335951 0.36508 0.442582 0.490038 0.525128 0.443714 0.573783 0.490523 0.526107 0.613385 0.66245 0.704778 0.614283 0.754111 0.66295 0.705609 0.800926 0.849786 0.899225 0.801516 0.94762 0.850233 0.899871 1.00125 1.04854 1.10444 1.00151 1.15066 1.04886 1.10488 1.21036 1.25503 1.31654 1.21031 1.35959 1.25518 1.31678 1.42443 1.46564 1.53183 1.42414 1.57091 1.4656 1.53182 1.63986 1.67702 1.74688 1.63938 1.78157 1.67675 1.74659 1.85362 1.88654 1.95917 1.85306 1.98965 1.88613 1.95865 2.06414 2.09332 2.16851 2.06345 2.1959 2.09299 2.16782 0.011 0.0518641 0.011 0.0267961 0.011 0.0221181 0.011 0.105515 0.072256 0.0484132 0.0266055 0.0572204 0.0207272 0.0705616 0.158198 0.122146 0.104328 0.218858 0.181752 0.15372 0.11839 0.161231 0.100161 0.176329 0.283174 0.245357 0.224017 0.353404 0.3168 0.276959 0.239463 0.295055 0.21831 0.310735 0.42741 0.391553 0.370243 0.506427 0.472872 0.420832 0.385418 0.452314 0.364519 0.467239 0.589105 0.556992 0.537595 0.676137 0.646678 0.583069 0.55143 0.628564 0.532451 0.64184 0.76647 0.738712 0.722116 0.860503 0.835441 0.761271 0.733995 0.820291 0.717734 0.8315 0.957279 0.933928 0.920419 1.05707 1.0363 0.953009 0.930109 1.02419 0.91684 1.03324 1.15901 1.13982 1.1293 1.26324 1.24643 1.15563 1.13685 1.23706 1.12648 1.24411 1.36892 1.35336 1.3454 1.47603 1.46254 1.36633 1.35114 1.45537 1.34322 1.46081 1.58396 1.57123 1.56518 1.69234 1.68132 1.58198 1.5696 1.67565 1.56353 1.68002 1.80092 1.79007 1.78521 1.90897 1.89934 1.79937 1.78884 1.89451 1.78391 1.89826 2.01666 2.0067 2.00238 2.1231 2.11419 2.01527 2.00559 2.10928 2.00126 2.11312 0.011 0.0219319 0.011 0.0247637 0.011 0.0543568 0.0205501 0.0571656 0.0229513 0.0510911 0.099284 0.103399 0.154285 0.0954152 0.157874 0.0996037 0.149389 0.216326 0.219916 0.286474 0.211261 0.289764 0.215454 0.281229 0.361872 0.365226 0.443924 0.356815 0.447321 0.360742 0.439083 0.530025 0.533795 0.621554 0.52547 0.625648 0.529685 0.617365 0.716199 0.720887 0.815223 0.712305 0.820322 0.717301 0.811741 0.916482 0.922265 1.02117 0.913277 1.02727 0.919232 1.01839 1.12722 1.13393 1.23578 1.12468 1.24257 1.13144 1.23359 1.34476 1.35202 1.45534 1.34277 1.46243 1.35003 1.45368 1.56545 1.57283 1.67629 1.56394 1.68323 1.57127 1.67507 1.78583 1.79293 1.89534 1.78466 1.90187 1.79164 1.8943 2.00288 2.00943 2.11002 2.00186 2.11571 2.00824 2.10883 0.011 0.0302694 0.011 0.0389081 0.011 0.0683743 0.030261 0.0819898 0.0378779 0.0666168 0.1156 0.134537 0.171733 0.113668 0.193105 0.133358 0.168567 0.234286 0.257682 0.304385 0.231315 0.328574 0.255222 0.300672 0.380188 0.405426 0.462268 0.376924 0.487636 0.402471 0.45862 0.549093 0.575014 0.640931 0.545927 0.666697 0.572054 0.637607 0.736502 0.76252 0.835899 0.733604 0.861558 0.759769 0.832995 0.938051 0.963696 1.04293 0.935489 1.06799 0.961258 1.04047 1.14958 1.1744 1.25795 1.14737 1.28195 1.17232 1.25593 1.36716 1.3907 1.47714 1.36532 1.4996 1.38896 1.47556 1.58701 1.60882 1.69688 1.58555 1.71739 1.60743 1.69563 1.80579 1.82565 1.91414 1.80459 1.9326 1.82443 1.91309 2.02094 2.03891 2.12703 2.01981 2.1439 2.03774 2.12577 0.011 0.0547932 0.011 0.0779329 0.011 0.10859 0.0528286 0.141458 0.0750242 0.10905 0.164111 0.201819 0.225206 0.164605 0.266214 0.202155 0.224417 0.292526 0.336149 0.364505 0.291282 0.410569 0.334893 0.362591 0.442867 0.490315 0.525208 0.440688 0.573982 0.488313 0.522869 0.613316 0.66239 0.704494 0.610816 0.75394 0.66019 0.702126 0.800494 0.849379 0.898585 0.797954 0.947098 0.847266 0.896375 1.00047 1.04778 1.10346 0.998022 1.1498 1.04589 1.10152 1.20924 1.25394 1.31524 1.207 1.35839 1.2523 1.3136 1.42298 1.46422 1.53018 1.42102 1.56934 1.46281 1.52886 1.63805 1.67523 1.74485 1.63647 1.7796 1.67402 1.74375 1.85146 1.88434 1.95687 1.85018 1.98736 1.88327 1.95577 2.06173 2.09083 2.16606 2.06043 2.19346 2.08992 2.16471 0.011 0.0506607 0.011 0.0263663 0.011 0.0201709 0.011 0.100668 0.0671089 0.059326 0.0361057 0.0518499 0.0219316 0.0675716 0.149124 0.111673 0.0928475 0.20614 0.167767 0.143156 0.104167 0.147508 0.0829648 0.156156 0.268256 0.22997 0.20884 0.33807 0.30101 0.2554 0.217365 0.280084 0.196824 0.288257 0.411986 0.376302 0.355487 0.491715 0.458237 0.399247 0.364301 0.438541 0.344823 0.447176 0.575123 0.543457 0.524562 0.663118 0.633996 0.5643 0.533287 0.61666 0.515761 0.624932 0.754436 0.727241 0.711068 0.849523 0.82488 0.745739 0.719004 0.810361 0.704059 0.817713 0.947363 0.924568 0.911364 1.04822 1.02786 0.940698 0.918179 1.01621 0.905992 1.02244 1.1512 1.13247 1.12211 1.25645 1.23994 1.14645 1.12782 1.23081 1.11823 1.2361 1.36308 1.34777 1.3398 1.47096 1.45767 1.35991 1.34464 1.45057 1.33722 1.45509 1.57967 1.56703 1.56091 1.68853 1.67764 1.57773 1.56513 1.67196 1.55931 1.67607 1.79768 1.7868 1.78185 1.90587 1.8963 1.79667 1.78582 1.89139 1.78102 1.89555 2.01382 2.00376 1.99931 2.1198 2.111 2.0131 2.00317 2.10579 1.99879 2.11005 0.011 0.0172661 0.011 0.0204868 0.011 0.0462869 0.0131113 0.0493822 0.0177037 0.0348989 0.0871758 0.0920713 0.141192 0.0757647 0.145862 0.0818315 0.127049 0.202155 0.206788 0.272751 0.190353 0.277135 0.195946 0.259857 0.348365 0.352539 0.431379 0.337871 0.435656 0.342987 0.420463 0.518117 0.522448 0.610729 0.509247 0.615442 0.514517 0.60171 0.706091 0.711106 0.80617 0.698824 0.811636 0.704721 0.798863 0.908141 0.914017 1.01382 0.902351 1.02005 0.909053 1.00806 1.12051 1.12711 1.22994 1.11609 1.23667 1.1234 1.22555 1.33945 1.34649 1.45076 1.33621 1.45767 1.34383 1.44754 1.56129 1.56839 1.67271 1.55901 1.6794 1.56659 1.67051 1.78248 1.78932 1.89224 1.78106 1.89853 1.78818 1.89092 1.99969 2.006 2.10648 1.99882 2.11187 2.0051 2.10511 0.011 0.0282717 0.011 0.0385997 0.011 0.0647855 0.0326724 0.0816727 0.0473326 0.0574693 0.107701 0.129806 0.162819 0.102193 0.186612 0.126364 0.15131 0.223711 0.249388 0.294032 0.215624 0.32005 0.242171 0.282597 0.369457 0.396144 0.452293 0.361425 0.47888 0.3886 0.442078 0.539199 0.565998 0.631969 0.531969 0.658481 0.55918 0.623197 0.727767 0.754238 0.828122 0.721515 0.854165 0.748446 0.820758 0.930542 0.95634 1.03633 0.925288 1.06153 0.95162 1.0303 1.14326 1.16804 1.25245 1.13895 1.27643 1.16435 1.2477 1.36193 1.38531 1.47261 1.35853 1.49498 1.38255 1.46902 1.58274 1.60438 1.69312 1.58019 1.71351 1.60241 1.69061 1.80222 1.82186 1.91086 1.80043 1.92908 1.82045 1.90907 2.01747 2.03524 2.12327 2.01605 2.13991 2.0338 2.12135 0.011 0.0558634 0.011 0.0754614 0.011 0.110355 0.0680009 0.144457 0.0933286 0.110894 0.162491 0.200247 0.221841 0.163791 0.265039 0.203897 0.216518 0.287196 0.332154 0.358417 0.28347 0.406798 0.330596 0.350926 0.435886 0.48464 0.51825 0.430555 0.569027 0.4813 0.510522 0.606019 0.656081 0.697577 0.600329 0.748654 0.652234 0.690344 0.793494 0.843102 0.892108 0.787948 0.941941 0.839252 0.885676 0.994049 1.0419 1.09764 0.988891 1.14502 1.03829 1.09215 1.20355 1.24866 1.31014 1.19895 1.35411 1.2454 1.30571 1.41806 1.4596 1.52581 1.41419 1.5656 1.45682 1.52247 1.63389 1.67127 1.74113 1.63094 1.77624 1.66905 1.73879 1.8478 1.88072 1.95335 1.84574 1.98391 1.87914 1.95152 2.058 2.08704 2.16209 2.05609 2.18948 2.08519 2.15985 
SCALARS weights float 1
LOOKUP_TABLE default