# vtk DataFile Version 5.1
vtk output
ASCII

DATASET UNSTRUCTURED_GRID
POINTS 2025 float
0 0 0
0.200312 -0.0243035 -0.0431957
0.413822 -0.0659623 -0.0452313
0.620004 -0.133272 -0.0353077
0.826321 -0.215152 -0.0264009
1.03382 -0.309705 -0.0184844
1.24392 -0.412213 -0.0122685
1.45638 -0.520248 -0.00788035
1.66917 -0.633521 -0.00369311
1.88605 -0.749122 -0.00213553
2.10228 -0.869435 0.00211851
2.32246 -0.987008 0.00318583
2.544 -1.10257 0.00243573
0 0.25 0
0.234626 0.239868 -0.0199854
0.467264 0.189199 -0.0208892
0.693838 0.11606 -0.0161084
0.915636 0.0278101 -0.0118014
1.1343 -0.0720352 -0.00784306
1.35131 -0.179879 -0.00467965
1.56839 -0.292468 -0.00139343
1.78531 -0.40912 0.000706914
2.00314 -0.527439 0.00250023
2.22114 -0.647524 0.00349574
2.44021 -0.765475 0.00487015
2.66101 -0.881913 0.00496234
0 0.5 0
0.254652 0.488197 0.000965219
0.506891 0.43515 0.00138148
0.75287 0.359344 0.00189407
0.991312 0.266739 0.00309668
1.22375 0.162908 0.00347347
1.45088 0.0513931 0.00377472
1.67427 -0.0647738 0.00485983
1.89581 -0.184401 0.00581867
2.11626 -0.304504 0.00604533
2.33553 -0.42488 0.00693307
2.55596 -0.543637 0.00706282
2.77689 -0.660871 0.00675838
0 0.75 0
0.272837 0.726197 0.0211485
0.544968 0.671048 0.0215761
0.809816 0.594011 0.019322
1.06361 0.49907 0.017457
1.30937 0.39215 0.0146228
1.54715 0.278637 0.0125208
1.77806 0.159554 0.011396
2.0046 0.0383131 0.0095799
2.22851 -0.0832391 0.00926551
2.45113 -0.203375 0.00892187
2.67294 -0.322769 0.00876497
2.89303 -0.441212 0.00976578
0 1 0
0.294817 0.951696 0.036727
0.590888 0.898138 0.0401688
0.87361 0.81966 0.0369578
1.1439 0.722178 0.0301724
1.40099 0.61349 0.0242342
1.64783 0.499439 0.0201984
1.88553 0.379147 0.0172947
2.1163 0.257129 0.0134045
2.34304 0.135803 0.0107755
2.56743 0.0171529 0.0110058
2.78985 -0.102573 0.0112731
3.01075 -0.220963 0.0115416
0 0 0.25
0.20766 -0.0437361 0.231487
0.408835 -0.0845952 0.227555
0.612639 -0.14671 0.231536
0.819503 -0.224797 0.236463
1.02817 -0.315561 0.24075
1.23901 -0.416047 0.244327
1.45219 -0.523131 0.246861
1.66667 -0.635907 0.24927
1.88304 -0.751511 0.249975
2.10089 -0.870364 0.251422
2.32113 -0.98822 0.252772
2.54305 -1.10469 0.252806
0 0.25 0.25
0.237216 0.226048 0.241135
0.464216 0.174062 0.238993
0.68778 0.103494 0.241445
0.909258 0.0181467 0.243839
1.12831 -0.0786354 0.24638
1.34638 -0.18428 0.248386
1.56421 -0.29577 0.25051
1.78228 -0.411509 0.25184
2.00003 -0.529438 0.252524
2.21844 -0.649135 0.254185
2.4383 -0.767266 0.255075
2.65924 -0.88406 0.255291
0 0.5 0.25
0.253155 0.477037 0.250152
0.504237 0.421786 0.249981
0.749026 0.346914 0.250622
0.987343 0.256943 0.25157
1.21948 0.155521 0.25246
1.44724 0.0458574 0.252899
1.67068 -0.0689434 0.254357
1.89338 -0.187249 0.25476
2.11412 -0.306697 0.255705
2.3339 -0.426465 0.256522
2.55376 -0.545073 0.257029
2.77532 -0.662294 0.2567
0 0.75 0.25
0.268242 0.715788 0.258407
0.542178 0.658524 0.260238
0.807132 0.581812 0.259623
1.06266 0.488895 0.258887
1.30788 0.384484 0.257925
1.54521 0.272364 0.257578
1.77608 0.155455 0.2574
2.00263 0.0360132 0.257622
2.22692 -0.0845463 0.257243
2.44916 -0.204492 0.257661
2.67013 -0.324276 0.258611
2.89191 -0.44237 0.259613
0 1 0.25
0.29009 0.938633 0.265076
0.586787 0.884689 0.270003
0.871173 0.807551 0.268059
1.14115 0.713185 0.265925
1.39915 0.606955 0.2629
1.646 0.493673 0.2616
1.88376 0.37542 0.261114
2.11526 0.255432 0.259599
2.34198 0.134699 0.259073
2.56596 0.0156712 0.259344
2.78782 -0.104207 0.26006
3.00901 -0.22169 0.261191
0 0 0.5
0.207988 -0.0474155 0.501838
0.408331 -0.0902204 0.500831
0.610715 -0.1516 0.500429
0.817086 -0.22834 0.500913
1.02597 -0.318278 0.50108
1.23759 -0.418063 0.501642
1.45105 -0.524886 0.501639
1.66657 -0.637866 0.501658
1.8831 -0.753624 0.502
2.10046 -0.871773 0.502158
2.32145 -0.989338 0.503044
2.54237 -1.1057 0.503222
0 0.25 0.5
0.237369 0.223725 0.500548
0.463756 0.170301 0.500486
0.686219 0.0994791 0.50074
0.907166 0.0149159 0.500547
1.12653 -0.0813395 0.501044
1.34492 -0.186309 0.501946
1.56277 -0.297834 0.502493
1.78115 -0.413097 0.503191
1.99899 -0.530729 0.503781
2.21744 -0.650539 0.50429
2.43868 -0.767682 0.504314
2.65958 -0.884267 0.504381
0 0.5 0.5
0.252397 0.475033 0.49996
0.503118 0.418382 0.499957
0.747444 0.343397 0.500564
0.985551 0.253868 0.500949
1.2178 0.152769 0.501614
1.4452 0.0439277 0.502607
1.66957 -0.0705545 0.503265
1.89191 -0.188565 0.504088
2.11274 -0.307738 0.505216
2.33301 -0.427989 0.505835
2.55364 -0.546324 0.506947
2.77511 -0.663017 0.506788
0 0.75 0.5
0.267067 0.713344 0.499356
0.54079 0.655241 0.499784
0.805888 0.577913 0.50054
1.06034 0.485558 0.501508
1.30588 0.38187 0.501688
1.54336 0.270269 0.503239
1.77444 0.153752 0.504072
2.0016 0.034293 0.504832
2.22579 -0.0855912 0.505753
2.44736 -0.206604 0.507446
2.66968 -0.325427 0.507537
2.89196 -0.443161 0.50929
0 1 0.5
0.288861 0.935336 0.498774
0.585194 0.881187 0.500754
0.869278 0.803748 0.500858
1.13932 0.710188 0.501705
1.39707 0.604964 0.501555
1.64403 0.491832 0.502901
1.88219 0.373806 0.504853
2.11389 0.253528 0.50567
2.34008 0.13407 0.507134
2.5629 0.0136842 0.508538
2.78513 -0.104616 0.509075
3.00707 -0.221602 0.510487
0 0 0.75
0.209267 -0.0428785 0.772333
0.408476 -0.0841825 0.774671
0.611023 -0.145869 0.770165
0.817596 -0.22453 0.765091
1.02664 -0.315806 0.760874
1.23787 -0.416784 0.75805
1.45088 -0.524716 0.756187
1.66583 -0.638414 0.754187
1.88206 -0.754865 0.753895
2.10117 -0.873267 0.752605
2.32206 -0.990156 0.752267
2.54412 -1.10649 0.752709
0 0.25 0.75
0.237247 0.226791 0.760141
0.463796 0.175155 0.761987
0.687129 0.104221 0.759853
0.908304 0.0183958 0.757275
1.12744 -0.0792581 0.75602
1.34529 -0.184554 0.75545
1.56277 -0.296774 0.754231
1.77995 -0.413201 0.754425
1.99806 -0.532077 0.754698
2.21653 -0.651062 0.75421
2.43744 -0.768707 0.754523
2.66013 -0.885056 0.754231
0 0.5 0.75
0.252622 0.477185 0.749596
0.503649 0.422276 0.750178
0.748459 0.347435 0.750633
0.98646 0.256851 0.750798
1.21854 0.155005 0.751174
1.44551 0.0455529 0.752133
1.66919 -0.0694138 0.752796
1.89108 -0.188036 0.753376
2.11127 -0.308306 0.754785
2.33194 -0.428222 0.754973
2.55323 -0.547226 0.756195
2.77469 -0.663769 0.757704
0 0.75 0.75
0.267713 0.71543 0.739647
0.541741 0.658448 0.73995
0.806451 0.581528 0.742373
1.06094 0.488601 0.744043
1.30578 0.384519 0.745863
1.54298 0.272568 0.748365
1.77356 0.155383 0.750863
2.00029 0.0350578 0.752681
2.22341 -0.0858028 0.754809
2.44594 -0.206343 0.75672
2.66696 -0.325451 0.757623
2.8895 -0.443033 0.759421
0 1 0.75
0.289815 0.939453 0.731146
0.587906 0.884987 0.731496
0.871365 0.807345 0.73407
1.14046 0.712979 0.737226
1.39769 0.607319 0.740232
1.64375 0.493446 0.744253
1.88142 0.375101 0.748199
2.11251 0.25415 0.751612
2.33809 0.133999 0.754989
2.56222 0.0138729 0.757092
2.78353 -0.105468 0.758278
3.0047 -0.222756 0.7604
0 0 1
0.200181 -0.0198947 1.04668
0.410097 -0.0639417 1.04753
0.61779 -0.131087 1.03894
0.824455 -0.215691 1.0278
1.03181 -0.311205 1.02015
1.24189 -0.413024 1.01426
1.45363 -0.521751 1.01046
1.66655 -0.637588 1.00716
1.88189 -0.756434 1.00437
2.10053 -0.874253 1.00266
2.32004 -0.992092 1.00156
2.54105 -1.10769 1.00303
0 0.25 1
0.233402 0.239403 1.02094
0.465949 0.19077 1.02278
0.693161 0.117229 1.01806
0.914606 0.0269217 1.01391
1.13254 -0.0737161 1.01116
1.34887 -0.180992 1.00898
1.56572 -0.293619 1.00643
1.78158 -0.411957 1.00457
1.99803 -0.532137 1.00477
2.21639 -0.651018 1.00376
2.43554 -0.7697 1.00388
2.65739 -0.886072 1.00431
0 0.5 1
0.2538 0.48717 0.999452
0.506752 0.435853 0.999708
0.752152 0.359459 1.00041
0.989877 0.266354 1.00048
1.22161 0.162566 1.00043
1.44713 0.0511538 1.00133
1.67036 -0.0657862 1.00231
1.89126 -0.186046 1.00224
2.1104 -0.307385 1.004
2.32982 -0.427399 1.00473
2.55015 -0.54758 1.00555
2.7717 -0.664373 1.00813
0 0.75 1
0.273174 0.725261 0.97929
0.54498 0.672086 0.978812
0.808946 0.59408 0.982887
1.06332 0.498965 0.986085
1.30746 0.39282 0.989327
1.54311 0.279115 0.99376
1.77339 0.159997 0.997554
1.99936 0.0379455 1.00051
2.22273 -0.0837613 1.00228
2.44403 -0.205192 1.00597
2.66474 -0.32515 1.00692
2.8858 -0.442209 1.01058
0 1 1
0.300694 0.953994 0.959348
0.59103 0.898762 0.960252
0.87324 0.81959 0.966633
1.14267 0.722901 0.972295
1.39901 0.615925 0.978164
1.64454 0.500539 0.984894
1.88123 0.380417 0.991477
2.11115 0.257634 0.997565
2.33723 0.136115 1.00145
2.56109 0.0154303 1.00537
2.78091 -0.10521 1.00876
3.00209 -0.221963 1.01066
0 0 0.125
0.109096 -0.0182238 0.106642
0.109402 -0.0173239 -0.0312492
0 0.125 0
0 0.125 0.125
0.113169 0.122022 -0.0211295
0.22034 0.110262 -0.0329471
0.120734 0.248794 -0.0136105
0.11834 0.115376 0.109783
0 0.125 0.25
0.120731 0.244295 0.115907
0 0.25 0.125
0.210688 -0.0391372 0.0916179
0.226345 0.100159 0.101654
0.110266 -0.0257992 0.237355
0.116295 0.111494 0.24006
0.238075 0.231368 0.109882
0.121252 0.240838 0.243788
0.22451 0.0942057 0.235175
0.309603 -0.051908 0.0900335
0.306326 -0.0385027 -0.0445308
0.331156 0.0900982 -0.0316186
0.442682 0.0629678 -0.0325322
0.35112 0.218208 -0.0206642
0.33331 0.079735 0.100102
0.352401 0.208686 0.109084
0.410495 -0.0773382 0.0909734
0.440559 0.0527165 0.10002
0.308585 -0.0597241 0.227742
0.331892 0.073944 0.233241
0.465843 0.180134 0.108631
0.351544 0.20287 0.239284
0.438756 0.0461781 0.233154
0.51235 -0.106239 0.0945495
0.516541 -0.0964801 -0.0395334
0.55153 0.0299076 -0.0287723
0.659486 -0.00781349 -0.0254628
0.580898 0.155521 -0.0185217
0.547817 0.0213168 0.102703
0.578416 0.146905 0.110466
0.614792 -0.140577 0.0977575
0.65491 -0.0153389 0.105194
0.510457 -0.112745 0.230031
0.545505 0.0155162 0.235106
0.690099 0.108907 0.112428
0.57624 0.141283 0.240429
0.652367 -0.0207989 0.236447
0.717985 -0.178587 0.10189
0.723243 -0.171993 -0.0304896
0.767063 -0.0489275 -0.02236
0.87343 -0.0934241 -0.0189834
0.805182 0.0739447 -0.0140301
0.761984 -0.0550182 0.10813
0.801337 0.0675288 0.114298
0.821667 -0.22001 0.104722
0.868955 -0.0987617 0.110353
0.715891 -0.183497 0.234715
0.759396 -0.0598555 0.238798
0.911739 0.0224331 0.115895
0.798744 0.0628119 0.24302
[...]
POINT_DATA 2025
SCALARS scalars float 1
LOOKUP_TABLE default
0 0.0701816 0.117573 0.189491 0.277762 0.378143 0.485435 0.597439 0.71471 0.832857 0.956088 1.07563 1.19315 0 0.0271744 0.072144 0.146129 0.23796 0.342278 0.454892 0.572061 0.693202 0.815694 0.939854 1.06169 1.1816 0 0.0127228 0.0652298 0.140698 0.233444 0.33813 0.451304 0.569849 0.69231 0.815568 0.939416 1.06155 1.18214 0 0.0391837 0.0933865 0.168178 0.259454 0.363035 0.47388 0.591222 0.711766 0.833568 0.954669 1.07557 1.19604 0 0.0754366 0.142302 0.221738 0.314331 0.415663 0.522324 0.635709 0.752039 0.869258 0.985219 1.10335 1.22107 0 0.0636259 0.126377 0.201824 0.288611 0.385838 0.491163 0.60197 0.717976 0.836321 0.957508 1.07727 1.19547 0 0.0285609 0.0846658 0.1594 0.249054 0.35046 0.460652 0.576528 0.696418 0.818545 0.942199 1.06396 1.18416 0 0.0231794 0.0783283 0.15309 0.243391 0.345837 0.457206 0.574462 0.695487 0.818081 0.94126 1.06336 1.18383 0 0.0396723 0.10125 0.177888 0.268665 0.370156 0.47983 0.595162 0.714032 0.834897 0.955875 1.07728 1.1973 0 0.0748359 0.145701 0.228135 0.320064 0.42059 0.527085 0.63884 0.753497 0.870223 0.98658 1.1049 1.22177 0 0.063377 0.128622 0.205872 0.29257 0.389218 0.4936 0.604055 0.719757 0.838192 0.958972 1.07817 1.19666 0 0.0291585 0.0875539 0.163478 0.252751 0.353599 0.463055 0.578951 0.698285 0.820098 0.943836 1.06424 1.18426 0 0.0250817 0.0816778 0.156625 0.246557 0.348724 0.459361 0.576205 0.69701 0.819335 0.942911 1.06461 1.18458 0 0.0404395 0.103165 0.180936 0.271243 0.372351 0.481698 0.596762 0.715725 0.835962 0.95808 1.07845 1.19808 0 0.0754525 0.146202 0.229658 0.321563 0.421527 0.528193 0.640013 0.755132 0.870632 0.988357 1.10521 1.22167 0 0.0632178 0.126776 0.202482 0.289677 0.386962 0.492431 0.604017 0.720594 0.839769 0.960035 1.07868 1.19673 0 0.0283579 0.0840017 0.159064 0.249202 0.351382 0.461304 0.577957 0.698766 0.821671 0.944608 1.06559 1.18486 0 0.0229688 0.0778097 0.152574 0.243527 0.346429 0.457707 0.575127 0.696611 0.820138 0.943327 1.06557 1.1854 0 0.0401995 0.101119 0.177841 0.268474 0.369736 0.479365 0.595084 0.714947 0.83624 0.957893 1.07868 1.19818 0 0.0748779 0.145938 0.228252 0.319803 0.419651 0.526587 0.638571 0.75429 0.870484 0.988114 1.10601 1.22281 0 0.0711116 0.120127 0.190208 0.279484 0.38061 0.487252 0.600141 0.719555 0.841258 0.9612 1.08126 1.19901 0 0.0287486 0.0720191 0.145551 0.239269 0.344547 0.45681 0.57404 0.697077 0.821735 0.944608 1.06709 1.18662 0 0.0133917 0.0645024 0.140558 0.233866 0.338626 0.451951 0.571368 0.694614 0.819375 0.942896 1.06649 1.18657 0 0.0397231 0.0924269 0.167567 0.259272 0.36193 0.472896 0.590472 0.712055 0.83421 0.95685 1.07855 1.19771 0 0.079618 0.141829 0.221019 0.312897 0.412547 0.520174 0.633386 0.750645 0.868279 0.986478 1.10568 1.22201 0 0.0303655 0.0389863 0 0 0.0243989 0.0467162 0.0143142 0.019197 0 0.011552 0 0.0647417 0.0414929 0.0322891 0.0188944 0.0267939 0.0116869 0.0426361 0.0905202 0.0904523 0.0643444 0.090508 0.0448104 0.0663847 0.049708 0.123086 0.0968613 0.0920507 0.0688902 0.079473 0.0537239 0.10123 0.15781 0.150448 0.123565 0.162729 0.105898 0.131166 0.11406 0.19694 0.170673 0.161958 0.136117 0.153797 0.119535 0.175992 0.238916 0.23139 0.205915 0.253159 0.189913 0.213222 0.19707 0.283933 0.259724 0.243352 0.218315 0.244253 0.202245 0.264465 0.331945 0.325943 0.303022 0.356072 0.288512 0.3087 0.294085 0.382067 0.36064 0.335696 0.312903 0.346809 0.298234 0.364244 0.434247 0.430091 0.410103 0.46665 0.397381 0.414079 0.401345 0.48807 0.469765 0.437139 0.41719 0.457903 0.404448 0.472467 0.543359 0.540167 0.523231 0.581734 0.512561 0.526204 0.515463 0.5997 0.584201 0.54553 0.528549 0.57437 0.517798 0.586298 0.657481 0.655157 0.640705 0.701277 0.631909 0.64292 0.634035 0.716022 0.702997 0.659219 0.644877 0.694733 0.635955 0.704601 0.775174 0.773283 0.761303 0.822161 0.754054 0.763121 0.755666 0.834898 0.823962 0.776673 0.764647 0.817173 0.757173 0.825383 0.895485 0.894082 0.883939 0.945947 0.87766 0.885099 0.878926 0.956057 0.946506 0.896471 0.886298 0.940701 0.880067 0.9479 1.01635 1.01543 1.00631 1.0669 1.00077 1.00721 1.00173 1.07598 1.06775 1.01711 1.00836 1.06259 1.0029 1.06894 1.1354 1.13454 1.12654 1.18596 1.12179 1.12758 1.12286 1.19449 1.18724 1.13619 1.12858 1.18285 1.12383 1.18838 0 0 0.0057872 0.0142076 0.00261813 0.00636086 0 0.00563594 0 0.0185326 0.00790697 0.01886 0.00792716 0.0226018 0.0347545 0.0632204 0.0355154 0.0420922 0.0433483 0.0716372 0.046979 0.072847 0.047918 0.0772165 0.0984943 0.13866 0.100275 0.106527 0.108107 0.146473 0.112111 0.147813 0.113353 0.151856 0.183178 0.231338 0.185006 0.189967 0.191583 0.237608 0.194982 0.239015 0.196264 0.242001 0.282425 0.336244 0.284196 0.287599 0.28934 0.340874 0.29166 0.34243 0.2931 0.344343 0.392076 0.449706 0.393673 0.395819 0.397573 0.452889 0.398882 0.454509 0.400516 0.455546 0.508164 0.567998 0.509831 0.510959 0.512744 0.570448 0.513393 0.572316 0.515053 0.572607 0.62848 0.69005 0.630612 0.630605 0.632605 0.691754 0.632483 0.693683 0.634441 0.693368 0.751423 0.813276 0.753612 0.752963 0.755098 0.814744 0.754476 0.816777 0.756419 0.816153 0.875523 0.937695 0.877317 0.876707 0.878462 0.93874 0.877905 0.940213 0.879546 0.939773 0.998715 1.0598 1.00037 0.999744 1.0013 1.06084 1.00074 1.0623 1.00212 1.06188 1.12018 1.18024 1.12202 1.12117 1.1228 1.18151 1.1221 1.1832 1.12357 1.18239 0 0 0.0102195 0.0244176 0.0190018 0.0108348 0 0.0169409 0 0.0274701 0.010951 0.0380962 0.0164357 0.029032 0.0467883 0.0760132 0.0630314 0.0523974 0.0660821 0.0824532 0.0554114 0.0977325 0.0682222 0.0866138 0.111072 0.150675 0.128402 0.117701 0.13401 0.157414 0.122185 0.173795 0.137648 0.161953 0.195022 0.242698 0.211962 0.200964 0.217548 0.248325 0.205334 0.264611 0.221714 0.252209 0.293544 0.346884 0.309819 0.298353 0.314683 0.351334 0.301972 0.366922 0.318082 0.354421 0.402435 0.459247 0.417516 0.406053 0.421267 0.462677 0.408927 0.477079 0.424036 0.465159 0.517677 0.577424 0.53174 0.520576 0.534638 0.580095 0.522872 0.593248 0.536739 0.581934 0.638128 0.699246 0.650993 0.640028 0.652882 0.700827 0.641771 0.712915 0.654198 0.702198 0.760419 0.82211 0.772336 0.761788 0.773276 0.823305 0.76296 0.834015 0.774288 0.824223 0.883471 0.944893 0.893876 0.884388 0.894602 0.945749 0.885323 0.955162 0.895318 0.946522 1.00576 1.06653 1.01506 1.00653 1.01575 1.06749 1.00735 1.07609 1.01646 1.06854 1.12709 1.18742 1.13574 1.12801 1.13634 1.18825 1.1287 1.19634 1.1371 1.18895 0 0 0.0270394 0.055667 0.0384229 0.0253241 0 0.0367634 0 0.0541949 0.0233266 0.0728133 0.0361341 0.0540619 0.0837999 0.115937 0.1076 0.0849039 0.107144 0.118775 0.0862545 0.143975 0.108461 0.121131 0.151986 0.191928 0.180399 0.156143 0.183318 0.196867 0.15912 0.225516 0.185541 0.200099 0.236107 0.283297 0.266573 0.241107 0.270838 0.288058 0.244392 0.317758 0.272843 0.291021 0.333462 0.385574 0.363691 0.337642 0.367417 0.389436 0.340354 0.418251 0.369238 0.391924 0.439618 0.49459 0.467949 0.442861 0.471218 0.497947 0.445326 0.525102 0.472994 0.500121 0.551841 0.610052 0.57825 0.554549 0.580964 0.612331 0.556417 0.63727 0.582238 0.613949 0.669342 0.72895 0.693242 0.670965 0.694938 0.730217 0.672154 0.752562 0.695713 0.731044 0.788816 0.848795 0.810148 0.789616 0.81113 0.849329 0.790467 0.869224 0.811621 0.85017 0.90832 0.967788 0.926945 0.908811 0.927539 0.968475 0.909751 0.985912 0.928265 0.969248 1.02777 1.08739 1.04434 1.02844 1.04493 1.08833 1.02919 1.10369 1.04571 1.08921 1.14725 1.20695 1.16207 1.14784 1.16251 1.20745 1.14862 1.22131 1.16314 1.20791 0 0.0290438 0 0.0166917 0 0.0112634 0 0.0635823 0.0407121 0.0319641 0.0178894 0.0282554 0.0113861 0.0420132 0.0930231 0.0697806 0.0550912 0.127988 0.102815 0.0931646 0.0702419 0.0868165 0.0559249 0.103725 0.164549 0.138887 0.122319 0.204491 0.178851 0.165355 0.139742 0.162306 0.123337 0.180147 0.24641 0.221378 0.205139 0.291199 0.267288 0.247448 0.222459 0.251724 0.206279 0.268436 0.338224 0.315437 0.300635 0.387769 0.366441 0.339272 0.316431 0.352586 0.301651 0.367525 0.43916 0.419181 0.406284 0.492331 0.474084 0.439918 0.420009 0.462209 0.407225 0.47488 0.547084 0.530047 0.519262 0.603074 0.587599 0.547751 0.530807 0.577895 0.520127 0.588608 0.660448 0.646049 0.637173 0.71876 0.705631 0.661097 0.646954 0.697436 0.637985 0.706483 0.777784 0.765622 0.758101 0.837166 0.826115 0.77851 0.766412 0.819288 0.758897 0.826937 0.897531 0.887087 0.880783 0.957729 0.948492 0.898228 0.887871 0.94256 0.881693 0.94954 1.01764 1.00887 1.00337 1.07724 1.06932 1.01824 1.0095 1.06393 1.00406 1.06948 1.1368 1.12903 1.12412 1.19621 1.18887 1.13728 1.12931 1.18408 1.12442 1.18894 0 0.00856793 0 0.00884606 0 0.023363 0.00876074 0.0238515 0.00900214 0.0242313 0.0491153 0.050164 0.0796285 0.0499451 0.0805359 0.0507658 0.0805857 0.115025 0.116098 0.154739 0.116009 0.155651 0.116979 0.155763 0.197789 0.198883 0.244568 0.198771 0.2456 0.199806 0.245547 0.293979 0.295242 0.346417 0.294982 0.347779 0.29624 0.347448 0.40069 0.402227 0.45714 0.401577 0.458617 0.402985 0.457924 0.51477 0.516368 0.573967 0.515557 0.575596 0.517103 0.574675 0.63366 0.635512 0.694383 0.634294 0.696205 0.636112 0.695085 0.75534 0.757247 0.816889 0.756049 0.818685 0.757881 0.817567 0.87854 0.880191 0.940449 0.87929 0.941801 0.880998 0.941362 1.00143 1.00291 1.06206 1.00209 1.06375 1.00371 1.06264 1.12235 1.12411 1.18242 1.12289 1.18419 1.12456 1.18285 0 0.0116461 0 0.0164695 0 0.0301983 0.011268 0.038994 0.01616 0.0302064 0.0574787 0.0691796 0.0888275 0.0575165 0.102476 0.0694348 0.0893516 0.124744 0.139613 0.164374 0.125354 0.180009 0.140349 0.165246 0.207763 0.223861 0.254386 0.208598 0.270283 0.224491 0.255329 0.303992 0.31974 0.356235 0.304814 0.371475 0.320413 0.357007 0.410509 0.42547 0.466617 0.4111 0.480853 0.426001 0.467209 0.524135 0.537955 0.582941 0.524743 0.596089 0.538469 0.583587 0.642632 0.655149 0.703076 0.643271 0.714926 0.655853 0.703754 0.763751 0.775147 0.824834 0.764418 0.835511 0.775702 0.825351 0.886012 0.896145 0.947179 0.886747 0.956752 0.89693 0.948328 1.00814 1.01725 1.06906 1.009 1.07756 1.01817 1.06964 1.1292 1.13764 1.18922 1.1296 1.19724 1.1382 1.18956 0 0.0243709 0 0.0360474 0 0.0546603 0.0224105 0.0735292 0.0354231 0.0545085 0.0865214 0.10819 0.122085 0.0869402 0.146119 0.108912 0.122351 0.160589 0.186628 0.201935 0.161091 0.229195 0.186688 0.202466 0.246151 0.274398 0.292778 0.246625 0.321309 0.274428 0.293268 0.342036 0.370714 0.393376 0.342431 0.421435 0.37055 0.393748 0.446662 0.474118 0.501408 0.446932 0.527878 0.474051 0.501685 0.557622 0.583393 0.614966 0.557928 0.639456 0.583462 0.615409 0.673167 0.69675 0.731937 0.673733 0.754185 0.697085 0.732705 0.791246 0.812352 0.850689 0.791808 0.870354 0.812391 0.851031 0.910383 0.928895 0.970242 0.911186 0.987489 0.929297 0.971226 1.02994 1.04633 1.08954 1.03065 1.10464 1.04647 1.09016 1.14886 1.16317 1.20807 1.14943 1.22159 1.1634 1.20831 0 0.0293834 0 0.0157774 0 0.0109617 0 0.0629933 0.0403982 0.0306167 0.0173801 0.0280447 0.0105884 0.0418842 0.092922 0.0695308 0.0550747 0.127775 0.102578 0.0928426 0.0689777 0.086536 0.0537718 0.100755 0.164565 0.138834 0.12216 0.204699 0.178942 0.162669 0.136147 0.162214 0.119324 0.176073 0.246692 0.221574 0.205191 0.291728 0.267563 0.244174 0.218651 0.251856 0.202313 0.265064 0.338726 0.315737 0.300938 0.388373 0.366817 0.336636 0.313541 0.35304 0.29883 0.365255 0.439746 0.419641 0.406785 0.493137 0.47458 0.438372 0.418299 0.462642 0.405392 0.473429 0.547869 0.530704 0.519725 0.604069 0.588608 0.546942 0.529691 0.57855 0.518797 0.588043 0.661552 0.647082 0.637964 0.719876 0.706838 0.661246 0.646895 0.698503 0.637646 0.707181 0.779133 0.766899 0.759257 0.838558 0.82756 0.779446 0.767255 0.820654 0.759737 0.828479 0.898804 0.888576 0.882129 0.958877 0.949856 0.899355 0.88926 0.943798 0.882831 0.950449 1.01877 1.00979 1.00442 1.07815 1.06974 1.01925 1.01036 1.06478 1.00495 1.07044 1.13759 1.12957 1.12484 1.19656 1.18905 1.13785 1.13002 1.18456 1.1254 1.18919 0 0.00834848 0 0.0087057 0 0.0232584 0.00763946 0.0236946 0.00765587 0.0223199 0.0489917 0.0499771 0.0794144 0.0467741 0.0803587 0.0474761 0.0766169 0.114862 0.115897 0.154535 0.111754 0.155506 0.112963 0.15147 0.19784 0.198916 0.244621 0.194976 0.245833 0.196347 0.242288 0.294316 0.295505 0.346836 0.292202 0.348014 0.29359 0.345176 0.401173 0.402462 0.457433 0.399649 0.458879 0.400959 0.456208 0.515123 0.516712 0.574324 0.51419 0.575944 0.515658 0.573702 0.634236 0.635914 0.695265 0.633775 0.696862 0.635361 0.695143 0.756438 0.758103 0.818173 0.756653 0.819707 0.758132 0.818627 0.879648 0.881239 0.941597 0.880127 0.94299 0.881556 0.941991 1.00259 1.00409 1.0633 1.00285 1.06488 1.0045 1.06376 1.12342 1.12519 1.1832 1.12401 1.18496 1.12568 1.18357 0 0.0113205 0 0.0159349 0 0.0301157 0.0103379 0.0389198 0.0153877 0.0288719 0.0572285 0.0690667 0.0887075 0.0550174 0.102641 0.0679696 0.0863728 0.124652 0.139647 0.16432 0.121841 0.179933 0.137558 0.161682 0.20787 0.223669 0.254599 0.205307 0.270247 0.221537 0.252367 0.304164 0.31976 0.356322 0.302162 0.37138 0.317792 0.354588 0.41055 0.425253 0.466785 0.408875 0.480728 0.423535 0.465269 0.524344 0.537959 0.583225 0.523128 0.596237 0.536591 0.582187 0.642998 0.655487 0.703533 0.642167 0.7154 0.654641 0.703126 0.764421 0.775702 0.82572 0.764331 0.836258 0.775319 0.825918 0.886965 0.896975 0.948369 0.887142 0.957762 0.896972 0.948535 1.00923 1.01823 1.0699 1.00962 1.07845 1.01833 1.07029 1.13001 1.13827 1.18991 1.13022 1.19772 1.13845 1.18999 0 0.0235976 0 0.0347555 0 0.0545758 0.0212129 0.0732086 0.0334509 0.0542069 0.0864027 0.108147 0.122309 0.0859395 0.146545 0.108701 0.121028 0.160631 0.186843 0.20201 0.159147 0.229461 0.186042 0.200052 0.246048 0.274309 0.292687 0.24417 0.321095 0.27278 0.290866 0.341914 0.370364 0.393009 0.340024 0.420969 0.3687 0.39127 0.446254 0.47373 0.500996 0.444555 0.527548 0.472134 0.49964 0.557487 0.583153 0.614973 0.55615 0.639358 0.58179 0.613874 0.673522 0.697015 0.732478 0.672573 0.754302 0.695946 0.731852 0.791684 0.81247 0.851311 0.791257 0.87065 0.811872 0.851157 0.911159 0.929377 0.971104 0.910997 0.987898 0.929242 0.970845 1.03064 1.04672 1.0903 1.03073 1.10531 1.04688 1.09063 1.14946 1.1637 1.20843 1.14984 1.22191 1.16408 1.2089 0 0.0301813 0 0.0157387 0 0.0100762 0 0.0637033 0.041458 0.0411755 0.0266272 0.0276796 0.0148948 0.0473991 0.0911485 0.06668 0.0502605 0.123325 0.0963311 0.0914436 0.0643934 0.0789836 0.0454511 0.0912551 0.157925 0.130984 0.113661 0.197304 0.170399 0.151546 0.123334 0.153491 0.105738 0.162753 0.239191 0.213512 0.19718 0.285432 0.260504 0.232264 0.206348 0.244982 0.190319 0.25476 0.333174 0.309889 0.295071 0.384048 0.362315 0.32801 0.304845 0.348356 0.290272 0.358532 0.43622 0.415886 0.402822 0.489983 0.471195 0.432702 0.412495 0.459379 0.399636 0.468692 0.545121 0.52783 0.516914 0.602131 0.586271 0.542653 0.525473 0.576222 0.51469 0.584231 0.660396 0.645853 0.63646 0.719773 0.706659 0.658991 0.644501 0.697965 0.635182 0.705868 0.779586 0.767272 0.759426 0.839953 0.828924 0.779468 0.767116 0.82142 0.759119 0.8293 0.900188 0.889747 0.882856 0.960165 0.95069 0.900767 0.890106 0.94429 0.883187 0.951107 1.02014 1.01096 1.00523 1.07957 1.07131 1.02107 1.01184 1.06599 1.00579 1.07252 1.13883 1.13074 1.12605 1.1976 1.19014 1.14002 1.13187 1.18563 1.12691 1.19134 0 0.00524504 0 0.00567075 0 0.0192674 0.00646041 0.0189977 0.00355356 0.015528 0.0422001 0.0428816 0.0710365 0.0344999 0.0723005 0.035529 0.0627153 0.106195 0.107584 0.145951 0.0979597 0.147535 0.0999302 0.138614 0.190211 0.191601 0.23807 0.183544 0.23939 0.185242 0.232533 0.288636 0.289822 0.342074 0.283596 0.343026 0.284891 0.337788 0.397049 0.39808 0.454121 0.393333 0.455214 0.394302 0.451192 0.512275 0.513524 0.571843 0.509656 0.573325 0.511082 0.569922 0.632544 0.634006 0.694259 0.631191 0.695633 0.632625 0.693493 0.756179 0.757486 0.818405 0.755748 0.819616 0.756899 0.818374 0.880016 0.881304 0.941656 0.880063 0.942952 0.881087 0.941834 1.0029 1.00433 1.06409 1.00331 1.06554 1.00473 1.06511 1.12447 1.12591 1.18409 1.12532 1.18555 1.12665 1.1851 0 0.00965858 0 0.0150359 0 0.0276033 0.0106403 0.0387687 0.0205867 0.0237697 0.0517511 0.0655236 0.0819647 0.0459435 0.0972592 0.062513 0.0748487 0.117244 0.133274 0.157151 0.110106 0.173384 0.127553 0.150363 0.201029 0.217368 0.248406 0.194646 0.264375 0.211721 0.242817 0.298608 0.314274 0.35118 0.293388 0.366257 0.309292 0.346765 0.40595 0.420615 0.462639 0.401854 0.476613 0.416322 0.45938 0.520953 0.534244 0.580426 0.517989 0.593212 0.53114 0.578076 0.64088 0.653116 0.701951 0.638955 0.7135 0.651051 0.70085 0.763537 0.774257 0.825309 0.762544 0.835363 0.773119 0.824553 0.886744 0.896342 0.948205 0.886029 0.95725 0.895589 0.947966 1.00945 1.01805 1.07039 1.00961 1.07858 1.0179 1.07078 1.1305 1.13848 1.19016 1.13083 1.19776 1.13835 1.19038 0 0.0225881 0 0.0328291 0 0.0556758 0.0284173 0.0748741 0.0429958 0.0571479 0.0843871 0.106859 0.118313 0.0828311 0.143775 0.106924 0.114682 0.155745 0.183165 0.196366 0.15074 0.225026 0.179442 0.191215 0.240581 0.269905 0.287306 0.235244 0.316678 0.265597 0.28248 0.336795 0.366103 0.388038 0.33182 0.416552 0.361527 0.383658 0.44175 0.469704 0.496936 0.437226 0.523761 0.465506 0.493109 0.553881 0.579811 0.611829 0.550308 0.636366 0.576291 0.608823 0.670954 0.694508 0.730316 0.668345 0.752205 0.691837 0.728646 0.790099 0.810745 0.849962 0.788526 0.86931 0.809323 0.849042 0.910232 0.92847 0.970338 0.909306 0.987201 0.927631 0.969522 1.03043 1.04664 1.09015 1.02995 1.10519 1.04612 1.09036 1.14951 1.16374 1.20846 1.1493 1.22184 1.16337 1.20828 
