# vtk DataFile Version 5.1
vtk output
ASCII

DATASET UNSTRUCTURED_GRID
POINTS 18513 float
0 0 0
0.25 0 0
0.5 0 0
0.75 0 0
1 0 0
1.25 0 0
1.5 0 0
1.75 0 0
2 0 0
2.25 0 0
2.5 0 0
2.75 0 0
3 0 0
3.25 0 0
3.5 0 0
3.75 0 0
4 0 0
0 0.03125 0
0.25 0.03125 0
0.5 0.03125 0
0.75 0.03125 0
1 0.03125 0
1.25 0.03125 0
1.5 0.03125 0
1.75 0.03125 0
2 0.03125 0
2.25 0.03125 0
2.5 0.03125 0
2.75 0.03125 0
3 0.03125 0
3.25 0.03125 0
3.5 0.03125 0
3.75 0.03125 0
4 0.03125 0
0 0.0625 0
0.25 0.0625 0
0.5 0.0625 0
0.75 0.0625 0
1 0.0625 0
1.25 0.0625 0
1.5 0.0625 0
1.75 0.0625 0
2 0.0625 0
2.25 0.0625 0
2.5 0.0625 0
2.75 0.0625 0
3 0.0625 0
3.25 0.0625 0
3.5 0.0625 0
3.75 0.0625 0
4 0.0625 0
0 0.09375 0
0.25 0.09375 0
0.5 0.09375 0
0.75 0.09375 0
1 0.09375 0
1.25 0.09375 0
1.5 0.09375 0
1.75 0.09375 0
2 0.09375 0
2.25 0.09375 0
2.5 0.09375 0
2.75 0.09375 0
3 0.09375 0
3.25 0.09375 0
3.5 0.09375 0
3.75 0.09375 0
4 0.09375 0
0 0.125 0
0.25 0.125 0
0.5 0.125 0
0.75 0.125 0
1 0.125 0
1.25 0.125 0
1.5 0.125 0
1.75 0.125 0
2 0.125 0
2.25 0.125 0
2.5 0.125 0
2.75 0.125 0
3 0.125 0
3.25 0.125 0
3.5 0.125 0
3.75 0.125 0
4 0.125 0
0 0.15625 0
0.25 0.15625 0
0.5 0.15625 0
0.75 0.15625 0
1 0.15625 0
1.25 0.15625 0
1.5 0.15625 0
1.75 0.15625 0
2 0.15625 0
2.25 0.15625 0
2.5 0.15625 0
2.75 0.15625 0
3 0.15625 0
3.25 0.15625 0
3.5 0.15625 0
3.75 0.15625 0
4 0.15625 0
0 0.1875 0
0.25 0.1875 0
0.5 0.1875 0
0.75 0.1875 0
1 0.1875 0
1.25 0.1875 0
1.5 0.1875 0
1.75 0.1875 0
2 0.1875 0
2.25 0.1875 0
2.5 0.1875 0
2.75 0.1875 0
3 0.1875 0
3.25 0.1875 0
3.5 0.1875 0
3.75 0.1875 0
4 0.1875 0
0 0.21875 0
0.25 0.21875 0
0.5 0.21875 0
0.75 0.21875 0
1 0.21875 0
1.25 0.21875 0
1.5 0.21875 0
1.75 0.21875 0
2 0.21875 0
2.25 0.21875 0
2.5 0.21875 0
2.75 0.21875 0
3 0.21875 0
3.25 0.21875 0
3.5 0.21875 0
3.75 0.21875 0
4 0.21875 0
0 0.25 0
0.25 0.25 0
0.5 0.25 0
0.75 0.25 0
1 0.25 0
1.25 0.25 0
1.5 0.25 0
1.75 0.25 0
2 0.25 0
2.25 0.25 0
2.5 0.25 0
2.75 0.25 0
3 0.25 0
3.25 0.25 0
3.5 0.25 0
3.75 0.25 0
4 0.25 0
0 0.28125 0
0.25 0.28125 0
0.5 0.28125 0
0.75 0.28125 0
1 0.28125 0
1.25 0.28125 0
1.5 0.28125 0
1.75 0.28125 0
2 0.28125 0
2.25 0.28125 0
2.5 0.28125 0
2.75 0.28125 0
3 0.28125 0
3.25 0.28125 0
3.5 0.28125 0
3.75 0.28125 0
4 0.28125 0
0 0.3125 0
0.25 0.3125 0
0.5 0.3125 0
0.75 0.3125 0
1 0.3125 0
1.25 0.3125 0
1.5 0.3125 0
1.75 0.3125 0
2 0.3125 0
2.25 0.3125 0
2.5 0.3125 0
2.75 0.3125 0
3 0.3125 0
3.25 0.3125 0
3.5 0.3125 0
3.75 0.3125 0
4 0.3125 0
0 0.34375 0
0.25 0.34375 0
0.5 0.34375 0
0.75 0.34375 0
1 0.34375 0
1.25 0.34375 0
1.5 0.34375 0
1.75 0.34375 0
2 0.34375 0
2.25 0.34375 0
2.5 0.34375 0
2.75 0.34375 0
3 0.34375 0
3.25 0.34375 0
3.5 0.34375 0
3.75 0.34375 0
4 0.34375 0
0 0.375 0
0.25 0.375 0
0.5 0.375 0
0.75 0.375 0
1 0.375 0
1.25 0.375 0
1.5 0.375 0
1.75 0.375 0
2 0.375 0
2.25 0.375 0
2.5 0.375 0
2.75 0.375 0
3 0.375 0
3.25 0.375 0
3.5 0.375 0
3.75 0.375 0
4 0.375 0
0 0.40625 0
0.25 0.40625 0
0.5 0.40625 0
0.75 0.40625 0
1 0.40625 0
1.25 0.40625 0
1.5 0.40625 0
1.75 0.40625 0
2 0.40625 0
2.25 0.40625 0
2.5 0.40625 0
2.75 0.40625 0
3 0.40625 0
3.25 0.40625 0
3.5 0.40625 0
3.75 0.40625 0
4 0.40625 0
0 0.4375 0
0.25 0.4375 0
0.5 0.4375 0
0.75 0.4375 0
1 0.4375 0
1.25 0.4375 0
1.5 0.4375 0
1.75 0.4375 0
2 0.4375 0
2.25 0.4375 0
2.5 0.4375 0
2.75 0.4375 0
3 0.4375 0
3.25 0.4375 0
3.5 0.4375 0
3.75 0.4375 0
4 0.4375 0
0 0.46875 0
0.25 0.46875 0
0.5 0.46875 0
0.75 0.46875 0
1 0.46875 0
1.25 0.46875 0
1.5 0.46875 0
1.75 0.46875 0
2 0.46875 0
2.25 0.46875 0
2.5 0.46875 0
2.75 0.46875 0
3 0.46875 0
3.25 0.46875 0
3.5 0.46875 0
3.75 0.46875 0
4 0.46875 0
0 0.5 0
0.25 0.5 0
0.5 0.5 0
0.75 0.5 0
1 0.5 0
1.25 0.5 0
1.5 0.5 0
1.75 0.5 0
2 0.5 0
2.25 0.5 0
2.5 0.5 0
2.75 0.5 0
3 0.5 0
3.25 0.5 0
3.5 0.5 0
3.75 0.5 0
4 0.5 0
0 0.53125 0
0.25 0.53125 0
0.5 0.53125 0
0.75 0.53125 0
1 0.53125 0
1.25 0.53125 0
1.5 0.53125 0
1.75 0.53125 0
2 0.53125 0
2.25 0.53125 0
2.5 0.53125 0
2.75 0.53125 0
3 0.53125 0
3.25 0.53125 0
3.5 0.53125 0
3.75 0.53125 0
4 0.53125 0
0 0.5625 0
0.25 0.5625 0
0.5 0.5625 0
0.75 0.5625 0
1 0.5625 0
1.25 0.5625 0
1.5 0.5625 0
1.75 0.5625 0
2 0.5625 0
2.25 0.5625 0
2.5 0.5625 0
2.75 0.5625 0
3 0.5625 0
3.25 0.5625 0
3.5 0.5625 0
3.75 0.5625 0
4 0.5625 0
0 0.59375 0
0.25 0.59375 0
0.5 0.59375 0
0.75 0.59375 0
1 0.59375 0
1.25 0.59375 0
1.5 0.59375 0
1.75 0.59375 0
2 0.59375 0
2.25 0.59375 0
2.5 0.59375 0
2.75 0.59375 0
3 0.59375 0
3.25 0.59375 0
3.5 0.59375 0
3.75 0.59375 0
4 0.59375 0
0 0.625 0
0.25 0.625 0
0.5 0.625 0
0.75 0.625 0
1 0.625 0
1.25 0.625 0
1.5 0.625 0
1.75 0.625 0
2 0.625 0
2.25 0.625 0
2.5 0.625 0
2.75 0.625 0
3 0.625 0
3.25 0.625 0
3.5 0.625 0
3.75 0.625 0
4 0.625 0
0 0.65625 0
0.25 0.65625 0
0.5 0.65625 0
0.75 0.65625 0
1 0.65625 0
1.25 0.65625 0
1.5 0.65625 0
1.75 0.65625 0
2 0.65625 0
2.25 0.65625 0
2.5 0.65625 0
2.75 0.65625 0
3 0.65625 0
3.25 0.65625 0
3.5 0.65625 0
3.75 0.65625 0
4 0.65625 0
0 0.6875 0
0.25 0.6875 0
0.5 0.6875 0
0.75 0.6875 0
1 0.6875 0
1.25 0.6875 0
1.5 0.6875 0
1.75 0.6875 0
2 0.6875 0
2.25 0.6875 0
2.5 0.6875 0
2.75 0.6875 0
3 0.6875 0
3.25 0.6875 0
3.5 0.6875 0
3.75 0.6875 0
4 0.6875 0
0 0.71875 0
0.25 0.71875 0
0.5 0.71875 0
0.75 0.71875 0
1 0.71875 0
1.25 0.71875 0
1.5 0.71875 0
1.75 0.71875 0
2 0.71875 0
2.25 0.71875 0
2.5 0.71875 0
2.75 0.71875 0
3 0.71875 0
3.25 0.71875 0
3.5 0.71875 0
3.75 0.71875 0
4 0.71875 0
0 0.75 0
0.25 0.75 0
0.5 0.75 0
0.75 0.75 0
1 0.75 0
1.25 0.75 0
1.5 0.75 0
1.75 0.75 0
2 0.75 0
2.25 0.75 0
2.5 0.75 0
2.75 0.75 0
3 0.75 0
3.25 0.75 0
3.5 0.75 0
3.75 0.75 0
4 0.75 0
0 0.78125 0
0.25 0.78125 0
0.5 0.78125 0
0.75 0.78125 0
1 0.78125 0
1.25 0.78125 0
1.5 0.78125 0
1.75 0.78125 0
2 0.78125 0
2.25 0.78125 0
2.5 0.78125 0
2.75 0.78125 0
3 0.78125 0
3.25 0.78125 0
3.5 0.78125 0
3.75 0.78125 0
4 0.78125 0
0 0.8125 0
0.25 0.8125 0
0.5 0.8125 0
0.75 0.8125 0
1 0.8125 0
1.25 0.8125 0
1.5 0.8125 0
1.75 0.8125 0
2 0.8125 0
2.25 0.8125 0
2.5 0.8125 0
2.75 0.8125 0
3 0.8125 0
3.25 0.8125 0
3.5 0.8125 0
3.75 0.8125 0
4 0.8125 0
0 0.84375 0
0.25 0.84375 0
0.5 0.84375 0
0.75 0.84375 0
1 0.84375 0
1.25 0.84375 0
1.5 0.84375 0
1.75 0.84375 0
2 0.84375 0
2.25 0.84375 0
2.5 0.84375 0
2.75 0.84375 0
3 0.84375 0
3.25 0.84375 0
3.5 0.84375 0
3.75 0.84375 0
4 0.84375 0
0 0.875 0
0.25 0.875 0
0.5 0.875 0
0.75 0.875 0
1 0.875 0
1.25 0.875 0
1.5 0.875 0
1.75 0.875 0
2 0.875 0
2.25 0.875 0
2.5 0.875 0
2.75 0.875 0
3 0.875 0
3.25 0.875 0
3.5 0.875 0
3.75 0.875 0
4 0.875 0
0 0.90625 0
0.25 0.90625 0
0.5 0.90625 0
0.75 0.90625 0
1 0.90625 0
1.25 0.90625 0
1.5 0.90625 0
1.75 0.90625 0
2 0.90625 0
2.25 0.90625 0
2.5 0.90625 0
2.75 0.90625 0
3 0.90625 0
3.25 0.90625 0
3.5 0.90625 0
3.75 0.90625 0
4 0.90625 0
0 0.9375 0
0.25 0.9375 0
0.5 0.9375 0
0.75 0.9375 0
1 0.9375 0
1.25 0.9375 0
1.5 0.9375 0
1.75 0.9375 0
2 0.9375 0
2.25 0.9375 0
2.5 0.9375 0
2.75 0.9375 0
3 0.9375 0
3.25 0.9375 0
3.5 0.9375 0
3.75 0.9375 0
4 0.9375 0
0 0.96875 0
0.25 0.96875 0
0.5 0.96875 0
0.75 0.96875 0
1 0.96875 0
1.25 0.96875 0
1.5 0.96875 0
1.75 0.96875 0
2 0.96875 0
2.25 0.96875 0
2.5 0.96875 0
2.75 0.96875 0
3 0.96875 0
3.25 0.96875 0
3.5 0.96875 0
3.75 0.96875 0
4 0.96875 0
0 1 0
0.25 1 0
0.5 1 0
0.75 1 0
1 1 0
1.25 1 0
1.5 1 0
1.75 1 0
2 1 0
2.25 1 0
2.5 1 0
2.75 1 0
3 1 0
3.25 1 0
3.5 1 0
3.75 1 0
4 1 0
0 0 0.03125
0.25 0 0.03125
0.5 0 0.03125
0.75 0 0.03125
1 0 0.03125
1.25 0 0.03125
1.5 0 0.03125
1.75 0 0.03125
2 0 0.03125
2.25 0 0.03125
2.5 0 0.03125
2.75 0 0.03125
3 0 0.03125
3.25 0 0.03125
3.5 0 0.03125
3.75 0 0.03125
4 0 0.03125
0 0.03125 0.03125
0.25 0.03125 0.03125
0.5 0.03125 0.03125
0.75 0.03125 0.03125
1 0.03125 0.03125
1.25 0.03125 0.03125
1.5 0.03125 0.03125
1.75 0.03125 0.03125
2 0.03125 0.03125
2.25 0.03125 0.03125
2.5 0.03125 0.03125
2.75 0.03125 0.03125
3 0.03125 0.03125
3.25 0.03125 0.03125
3.5 0.03125 0.03125
3.75 0.03125 0.03125
4 0.03125 0.03125
0 0.0625 0.03125
0.25 0.0625 0.03125
0.5 0.0625 0.03125
0.75 0.0625 0.03125
1 0.0625 0.03125
1.25 0.0625 0.03125
1.5 0.0625 0.03125
1.75 0.0625 0.03125
2 0.0625 0.03125
2.25 0.0625 0.03125
2.5 0.0625 0.03125
2.75 0.0625 0.03125
3 0.0625 0.03125
3.25 0.0625 0.03125
3.5 0.0625 0.03125
3.75 0.0625 0.03125
4 0.0625 0.03125
0 0.09375 0.03125
0.25 0.09375 0.03125
0.5 0.09375 0.03125
0.75 0.09375 0.03125
1 0.09375 0.03125
1.25 0.09375 0.03125
1.5 0.09375 0.03125
1.75 0.09375 0.03125
2 0.09375 0.03125
2.25 0.09375 0.03125
2.5 0.09375 0.03125
2.75 0.09375 0.03125
3 0.09375 0.03125
3.25 0.09375 0.03125
3.5 0.09375 0.03125
3.75 0.09375 0.03125
4 0.09375 0.03125
0 0.125 0.03125
0.25 0.125 0.03125
0.5 0.125 0.03125
0.75 0.125 0.03125
1 0.125 0.03125
1.25 0.125 0.03125
1.5 0.125 0.03125
1.75 0.125 0.03125
2 0.125 0.03125
2.25 0.125 0.03125
2.5 0.125 0.03125
2.75 0.125 0.03125
3 0.125 0.03125
3.25 0.125 0.03125
3.5 0.125 0.03125
3.75 0.125 0.03125
4 0.125 0.03125
0 0.15625 0.03125
0.25 0.15625 0.03125
0.5 0.15625 0.03125
0.75 0.15625 0.03125
1 0.15625 0.03125
1.25 0.15625 0.03125
1.5 0.15625 0.03125
1.75 0.15625 0.03125
2 0.15625 0.03125
2.25 0.15625 0.03125
2.5 0.15625 0.03125
2.75 0.15625 0.03125
3 0.15625 0.03125
3.25 0.15625 0.03125
3.5 0.15625 0.03125
3.75 0.15625 0.03125
4 0.15625 0.03125
0 0.1875 0.03125
0.25 0.1875 0.03125
0.5 0.1875 0.03125
0.75 0.1875 0.03125
1 0.1875 0.03125
1.25 0.1875 0.03125
1.5 0.1875 0.03125
1.75 0.1875 0.03125
2 0.1875 0.03125
2.25 0.1875 0.03125
2.5 0.1875 0.03125
2.75 0.1875 0.03125
3 0.1875 0.03125
3.25 0.1875 0.03125
3.5 0.1875 0.03125
3.75 0.1875 0.03125
4 0.1875 0.03125
0 0.21875 0.03125
0.25 0.21875 0.03125
0.5 0.21875 0.03125
0.75 0.21875 0.03125
1 0.21875 0.03125
1.25 0.21875 0.03125
1.5 0.21875 0.03125
1.75 0.21875 0.03125
2 0.21875 0.03125
2.25 0.21875 0.03125
2.5 0.21875 0.03125
2.75 0.21875 0.03125
3 0.21875 0.03125
3.25 0.21875 0.03125
3.5 0.21875 0.03125
3.75 0.21875 0.03125
4 0.21875 0.03125
0 0.25 0.03125
0.25 0.25 0.03125
0.5 0.25 0.03125
0.75 0.25 0.03125
1 0.25 0.03125
1.25 0.25 0.03125
1.5 0.25 0.03125
1.75 0.25 0.03125
2 0.25 0.03125
2.25 0.25 0.03125
2.5 0.25 0.03125
2.75 0.25 0.03125
3 0.25 0.03125
[...]
POINT_DATA 18513
SCALARS weights float 1
LOOKUP_TABLE default
0.0305176 0.0610352 0.0610352 0.0610352 0.0610352 0.0610352 0.0610352 0.0610352 0.0610351 0.0610351 0.0610352 0.0610351 0.0610352 0.0610352 0.0610351 0.0610351 0.0305176 0.0610352 0.12207 0.12207 0.12207 0.12207 0.12207 0.12207 0.12207 0.12207 0.12207 0.12207 0.12207 0.12207 0.12207 0.12207 0.12207 0.0610352 0.0610352 0.12207 0.12207 0.12207 0.12207 0.12207 0.12207 0.12207 0.12207 0.12207 0.12207 0.12207 0.12207 0.12207 0.12207 0.12207 0.0610352 0.0610352 0.12207 0.12207 0.12207 0.12207 0.12207 0.12207 0.12207 0.12207 0.12207 0.12207 0.12207 0.12207 0.12207 0.12207 0.12207 0.0610351 0.0610352 0.12207 0.12207 0.12207 0.12207 0.12207 0.12207 0.12207 0.12207 0.12207 0.12207 0.12207 0.12207 0.12207 0.12207 0.12207 0.0610351 0.0610351 0.12207 0.12207 0.12207 0.12207 0.12207 0.12207 0.12207 0.12207 0.12207 0.12207 0.12207 0.12207 0.12207 0.12207 0.12207 0.0610351 0.0610352 0.12207 0.12207 0.12207 0.12207 0.12207 0.12207 0.12207 0.12207 0.12207 0.12207 0.12207 0.12207 0.12207 0.12207 0.12207 0.0610352 0.0610352 0.12207 0.12207 0.12207 0.12207 0.12207 0.12207 0.12207 0.12207 0.12207 0.12207 0.12207 0.12207 0.12207 0.12207 0.12207 0.0610352 0.0610351 0.12207 0.12207 0.12207 0.12207 0.12207 0.12207 0.12207 0.12207 0.12207 0.12207 0.12207 0.12207 0.12207 0.12207 0.12207 0.0610351 0.0610351 0.12207 0.12207 0.12207 0.12207 0.12207 0.12207 0.12207 0.12207 0.12207 0.12207 0.12207 0.12207 0.12207 0.12207 0.12207 0.0610351 0.0610351 0.12207 0.12207 0.12207 0.12207 0.12207 0.12207 0.12207 0.12207 0.12207 0.12207 0.12207 0.12207 0.12207 0.12207 0.12207 0.0610351 0.0610351 0.12207 0.12207 0.12207 0.12207 0.12207 0.12207 0.12207 0.12207 0.12207 0.12207 0.12207 0.12207 0.12207 0.12207 0.12207 0.0610351 0.0610352 0.12207 0.12207 0.12207 0.12207 0.12207 0.12207 0.12207 0.12207 0.12207 0.12207 0.12207 0.12207 0.12207 0.12207 0.12207 0.0610352 0.0610352 0.12207 0.12207 0.12207 0.12207 0.12207 0.12207 0.12207 0.12207 0.12207 0.12207 0.12207 0.12207 0.12207 0.12207 0.12207 0.0610352 0.0610351 0.12207 0.12207 0.12207 0.12207 0.12207 0.12207 0.12207 0.12207 0.12207 0.12207 0.12207 0.12207 0.12207 0.12207 0.12207 0.0610351 0.0610351 0.12207 0.12207 0.12207 0.12207 0.12207 0.12207 0.12207 0.12207 0.12207 0.12207 0.12207 0.12207 0.12207 0.12207 0.12207 0.0610351 0.0610352 0.12207 0.12207 0.12207 0.12207 0.12207 0.12207 0.12207 0.12207 0.12207 0.12207 0.12207 0.12207 0.12207 0.12207 0.12207 0.0610352 0.0610351 0.12207 0.12207 0.12207 0.12207 0.12207 0.12207 0.12207 0.12207 0.12207 0.12207 0.12207 0.12207 0.12207 0.12207 0.12207 0.0610351 0.0610351 0.12207 0.12207 0.12207 0.12207 0.12207 0.12207 0.12207 0.12207 0.12207 0.12207 0.12207 0.12207 0.12207 0.12207 0.12207 0.0610351 0.0610352 0.12207 0.12207 0.12207 0.12207 0.12207 0.12207 0.12207 0.12207 0.12207 0.12207 0.12207 0.12207 0.12207 0.12207 0.12207 0.0610352 0.0610352 0.12207 0.12207 0.12207 0.12207 0.12207 0.12207 0.12207 0.12207 0.12207 0.12207 0.12207 0.12207 0.12207 0.12207 0.12207 0.0610352 0.0610351 0.12207 0.12207 0.12207 0.12207 0.12207 0.12207 0.12207 0.12207 0.12207 0.12207 0.12207 0.12207 0.12207 0.12207 0.12207 0.0610351 0.0610352 0.12207 0.12207 0.12207 0.12207 0.12207 0.12207 0.12207 0.12207 0.12207 0.12207 0.12207 0.12207 0.12207 0.12207 0.12207 0.0610352 0.0610352 0.12207 0.12207 0.12207 0.12207 0.12207 0.12207 0.12207 0.12207 0.12207 0.12207 0.12207 0.12207 0.12207 0.12207 0.12207 0.0610352 0.0610351 0.12207 0.12207 0.12207 0.12207 0.12207 0.12207 0.12207 0.12207 0.12207 0.12207 0.12207 0.12207 0.12207 0.12207 0.12207 0.0610351 0.0610352 0.12207 0.12207 0.12207 0.12207 0.12207 0.12207 0.12207 0.12207 0.12207 0.12207 0.12207 0.12207 0.12207 0.12207 0.12207 0.0610352 0.0610351 0.12207 0.12207 0.12207 0.12207 0.12207 0.12207 0.12207 0.12207 0.12207 0.12207 0.12207 0.12207 0.12207 0.12207 0.12207 0.0610351 0.0610351 0.12207 0.12207 0.12207 0.12207 0.12207 0.12207 0.12207 0.12207 0.12207 0.12207 0.12207 0.12207 0.12207 0.12207 0.12207 0.0610351 0.0610351 0.12207 0.12207 0.12207 0.12207 0.12207 0.12207 0.12207 0.12207 0.12207 0.12207 0.12207 0.12207 0.12207 0.12207 0.12207 0.0610351 0.0610351 0.12207 0.12207 0.12207 0.12207 0.12207 0.12207 0.12207 0.12207 0.12207 0.12207 0.12207 0.12207 0.12207 0.12207 0.12207 0.0610351 0.0610351 0.12207 0.12207 0.12207 0.12207 0.12207 0.12207 0.12207 0.12207 0.12207 0.12207 0.12207 0.12207 0.12207 0.12207 0.12207 0.0610351 0.0610351 0.12207 0.12207 0.12207 0.12207 0.12207 0.12207 0.12207 0.12207 0.12207 0.12207 0.12207 0.12207 0.12207 0.12207 0.12207 0.0610351 0.0305176 0.0610351 0.0610351 0.0610351 0.0610351 0.0610351 0.0610351 0.0610351 0.0610351 0.0610351 0.0610351 0.0610351 0.0610351 0.0610351 0.0610351 0.0610351 0.0305176 0.0610352 0.12207 0.12207 0.12207 0.12207 0.12207 0.12207 0.12207 0.12207 0.12207 0.12207 0.12207 0.12207 0.12207 0.12207 0.12207 0.0610352 0.12207 0.244141 0.244141 0.244141 0.244141 0.244141 0.244141 0.244141 0.244141 0.244141 0.244141 0.244141 0.244141 0.244141 0.244141 0.244141 0.12207 0.12207 0.244141 0.244141 0.244141 0.244141 0.244141 0.244141 0.244141 0.244141 0.244141 0.244141 0.244141 0.244141 0.244141 0.244141 0.244141 0.12207 0.12207 0.244141 0.244141 0.244141 0.244141 0.244141 0.244141 0.244141 0.244141 0.244141 0.244141 0.244141 0.244141 0.244141 0.244141 0.244141 0.12207 0.12207 0.244141 0.244141 0.244141 0.244141 0.244141 0.244141 0.244141 0.244141 0.244141 0.244141 0.244141 0.244141 0.244141 0.244141 0.244141 0.12207 0.12207 0.244141 0.244141 0.244141 0.244141 0.244141 0.244141 0.244141 0.244141 0.244141 0.244141 0.244141 0.244141 0.244141 0.244141 0.244141 0.12207 0.12207 0.244141 0.244141 0.244141 0.244141 0.244141 0.244141 0.244141 0.244141 0.244141 0.244141 0.244141 0.244141 0.244141 0.244141 0.244141 0.12207 0.12207 0.244141 0.244141 0.244141 0.244141 0.244141 0.244141 0.244141 0.244141 0.244141 0.244141 0.244141 0.244141 0.244141 0.244141 0.244141 0.12207 0.12207 0.244141 0.244141 0.244141 0.244141 0.244141 0.244141 0.244141 0.244141 0.244141 0.244141 0.244141 0.244141 0.244141 0.244141 0.244141 0.12207 0.12207 0.244141 0.244141 0.244141 0.244141 0.244141 0.244141 0.244141 0.244141 0.244141 0.244141 0.244141 0.244141 0.244141 0.244141 0.244141 0.12207 0.12207 0.244141 0.244141 0.244141 0.244141 0.244141 0.244141 0.244141 0.244141 0.244141 0.244141 0.244141 0.244141 0.244141 0.244141 0.244141 0.12207 0.12207 0.244141 0.244141 0.244141 0.244141 0.244141 0.244141 0.244141 0.244141 0.244141 0.244141 0.244141 0.244141 0.244141 0.244141 0.244141 0.12207 0.12207 0.244141 0.244141 0.244141 0.244141 0.244141 0.244141 0.244141 0.244141 0.244141 0.244141 0.244141 0.244141 0.244141 0.244141 0.244141 0.12207 0.12207 0.244141 0.244141 0.244141 0.244141 0.244141 0.244141 0.244141 0.244141 0.244141 0.244141 0.244141 0.244141 0.244141 0.244141 0.244141 0.12207 0.12207 0.244141 0.244141 0.244141 0.244141 0.244141 0.244141 0.244141 0.24414 0.244141 0.244141 0.244141 0.244141 0.244141 0.244141 0.24414 0.12207 0.12207 0.244141 0.244141 0.244141 0.244141 0.244141 0.244141 0.244141 0.244141 0.244141 0.244141 0.244141 0.244141 0.244141 0.244141 0.244141 0.12207 0.12207 0.244141 0.244141 0.244141 0.244141 0.244141 0.244141 0.244141 0.244141 0.244141 0.244141 0.244141 0.244141 0.244141 0.244141 0.244141 0.12207 0.12207 0.244141 0.244141 0.244141 0.244141 0.244141 0.244141 0.244141 0.244141 0.244141 0.244141 0.244141 0.244141 0.244141 0.244141 0.244141 0.12207 0.12207 0.244141 0.24414 0.24414 0.24414 0.244141 0.244141 0.244141 0.24414 0.24414 0.244141 0.24414 0.244141 0.244141 0.24414 0.24414 0.12207 0.12207 0.244141 0.244141 0.244141 0.244141 0.244141 0.244141 0.244141 0.244141 0.244141 0.244141 0.244141 0.244141 0.244141 0.244141 0.244141 0.12207 0.12207 0.244141 0.244141 0.244141 0.244141 0.244141 0.244141 0.244141 0.244141 0.244141 0.244141 0.244141 0.244141 0.244141 0.244141 0.244141 0.12207 0.12207 0.244141 0.244141 0.244141 0.244141 0.244141 0.244141 0.244141 0.244141 0.244141 0.244141 0.244141 0.244141 0.244141 0.244141 0.244141 0.12207 0.12207 0.244141 0.244141 0.244141 0.244141 0.244141 0.244141 0.244141 0.244141 0.244141 0.244141 0.244141 0.244141 0.244141 0.244141 0.244141 0.12207 0.12207 0.244141 0.244141 0.244141 0.244141 0.244141 0.244141 0.244141 0.244141 0.244141 0.244141 0.244141 0.244141 0.244141 0.244141 0.244141 0.12207 0.12207 0.244141 0.244141 0.244141 0.244141 0.244141 0.244141 0.244141 0.244141 0.244141 0.244141 0.244141 0.244141 0.244141 0.244141 0.244141 0.12207 0.12207 0.244141 0.244141 0.244141 0.244141 0.244141 0.244141 0.244141 0.244141 0.244141 0.244141 0.244141 0.244141 0.244141 0.244141 0.244141 0.12207 0.12207 0.24414 0.24414 0.24414 0.24414 0.24414 0.244141 0.24414 0.24414 0.24414 0.244141 0.24414 0.24414 0.244141 0.24414 0.24414 0.12207 0.12207 0.24414 0.24414 0.24414 0.24414 0.24414 0.24414 0.24414 0.24414 0.24414 0.24414 0.24414 0.24414 0.24414 0.24414 0.24414 0.12207 0.12207 0.244141 0.244141 0.244141 0.244141 0.244141 0.244141 0.244141 0.244141 0.244141 0.244141 0.244141 0.244141 0.244141 0.244141 0.244141 0.12207 0.12207 0.24414 0.24414 0.24414 0.24414 0.24414 0.244141 0.244141 0.24414 0.24414 0.244141 0.24414 0.244141 0.244141 0.24414 0.24414 0.12207 0.12207 0.244141 0.244141 0.244141 0.244141 0.244141 0.244141 0.244141 0.244141 0.24414 0.244141 0.244141 0.244141 0.244141 0.244141 0.24414 0.12207 0.12207 0.24414 0.24414 0.24414 0.24414 0.24414 0.244141 0.244141 0.24414 0.24414 0.244141 0.24414 0.244141 0.244141 0.24414 0.24414 0.12207 0.0610351 0.12207 0.12207 0.12207 0.12207 0.12207 0.12207 0.12207 0.12207 0.12207 0.12207 0.12207 0.12207 0.12207 0.12207 0.12207 0.0610351 0.0610352 0.12207 0.12207 0.12207 0.12207 0.12207 0.12207 0.12207 0.12207 0.12207 0.12207 0.12207 0.12207 0.12207 0.12207 0.12207 0.0610352 0.12207 0.244141 0.244141 0.244141 0.244141 0.244141 0.244141 0.244141 0.244141 0.244141 0.244141 0.244141 0.244141 0.244141 0.244141 0.244141 0.12207 0.12207 0.244141 0.244141 0.244141 0.244141 0.244141 0.244141 0.244141 0.244141 0.244141 0.244141 0.244141 0.244141 0.244141 0.244141 0.244141 0.12207 0.12207 0.244141 0.244141 0.244141 0.244141 0.244141 0.244141 0.244141 0.244141 0.244141 0.244141 0.244141 0.244141 0.244141 0.244141 0.244141 0.12207 0.12207 0.244141 0.244141 0.244141 0.244141 0.244141 0.244141 0.244141 0.244141 0.244141 0.244141 0.244141 0.244141 0.244141 0.244141 0.244141 0.12207 0.12207 0.244141 0.244141 0.244141 0.244141 0.244141 0.244141 0.244141 0.244141 0.244141 0.244141 0.244141 0.244141 0.244141 0.244141 0.244141 0.12207 0.12207 0.244141 0.244141 0.244141 0.244141 0.244141 0.244141 0.244141 0.244141 0.244141 0.244141 0.244141 0.244141 0.244141 0.244141 0.244141 0.12207 0.12207 0.244141 0.244141 0.244141 0.244141 0.244141 0.244141 0.244141 0.244141 0.244141 0.244141 0.244141 0.244141 0.244141 0.244141 0.244141 0.12207 0.12207 0.244141 0.244141 0.244141 0.244141 0.244141 0.244141 0.244141 0.244141 0.244141 0.244141 0.244141 0.244141 0.244141 0.244141 0.244141 0.12207 0.12207 0.244141 0.244141 0.244141 0.244141 0.244141 0.244141 0.244141 0.244141 0.244141 0.244141 0.244141 0.244141 0.244141 0.244141 0.244141 0.12207 0.12207 0.244141 0.244141 0.244141 0.244141 0.244141 0.244141 0.244141 0.244141 0.244141 0.244141 0.244141 0.244141 0.244141 0.244141 0.244141 0.12207 0.12207 0.244141 0.244141 0.244141 0.244141 0.244141 0.244141 0.244141 0.244141 0.244141 0.244141 0.244141 0.244141 0.244141 0.244141 0.244141 0.12207 0.12207 0.244141 0.244141 0.244141 0.244141 0.244141 0.244141 0.244141 0.244141 0.244141 0.244141 0.244141 0.244141 0.244141 0.244141 0.244141 0.12207 0.12207 0.244141 0.244141 0.244141 0.244141 0.244141 0.244141 0.244141 0.244141 0.244141 0.244141 0.244141 0.244141 0.244141 0.244141 0.244141 0.12207 0.12207 0.244141 0.244141 0.244141 0.244141 0.244141 0.244141 0.244141 0.24414 0.24414 0.244141 0.244141 0.244141 0.244141 0.24414 0.24414 0.12207 0.12207 0.244141 0.244141 0.244141 0.244141 0.244141 0.244141 0.244141 0.244141 0.244141 0.244141 0.244141 0.244141 0.244141 0.244141 0.244141 0.12207 0.12207 0.244141 0.244141 0.244141 0.244141 0.244141 0.244141 0.244141 0.244141 0.244141 0.244141 0.244141 0.244141 0.244141 0.244141 0.244141 0.12207 0.12207 0.244141 0.244141 0.244141 0.244141 0.244141 0.244141 0.244141 0.244141 0.244141 0.244141 0.244141 0.244141 0.244141 0.244141 0.244141 0.12207 0.12207 0.24414 0.24414 0.24414 0.24414 0.24414 0.244141 0.244141 0.24414 0.24414 0.244141 0.24414 0.244141 0.244141 0.24414 0.24414 0.12207 0.12207 0.244141 0.244141 0.244141 0.244141 0.244141 0.244141 0.244141 0.244141 0.244141 0.244141 0.244141 0.244141 0.244141 0.244141 0.244141 0.12207 0.12207 0.244141 0.244141 0.244141 0.244141 0.244141 0.244141 0.244141 0.244141 0.244141 0.244141 0.244141 0.244141 0.244141 0.244141 0.244141 0.12207 0.12207 0.244141 0.244141 0.244141 0.244141 0.244141 0.244141 0.244141 0.244141 0.244141 0.244141 0.244141 0.244141 0.244141 0.244141 0.244141 0.12207 0.12207 0.244141 0.244141 0.244141 0.244141 0.244141 0.244141 0.244141 0.244141 0.244141 0.244141 0.244141 0.244141 0.244141 0.244141 0.244141 0.12207 0.12207 0.244141 0.244141 0.244141 0.244141 0.244141 0.244141 0.244141 0.244141 0.244141 0.244141 0.244141 0.244141 0.244141 0.244141 0.244141 0.12207 0.12207 0.244141 0.244141 0.244141 0.244141 0.244141 0.244141 0.244141 0.244141 0.244141 0.244141 0.244141 0.244141 0.244141 0.244141 0.244141 0.12207 0.12207 0.244141 0.244141 0.244141 0.244141 0.244141 0.244141 0.244141 0.244141 0.244141 0.244141 0.244141 0.244141 0.244141 0.244141 0.244141 0.12207 0.12207 0.24414 0.24414 0.24414 0.24414 0.24414 0.24414 0.24414 0.24414 0.24414 0.24414 0.24414 0.24414 0.244141 0.24414 0.24414 0.12207 0.12207 0.24414 0.24414 0.24414 0.24414 0.24414 0.24414 0.24414 0.24414 0.24414 0.24414 0.24414 0.24414 0.24414 0.24414 0.24414 0.12207 0.12207 0.244141 0.244141 0.244141 0.244141 0.244141 0.244141 0.244141 0.244141 0.244141 0.244141 0.244141 0.244141 0.244141 0.244141 0.244141 0.12207 0.12207 0.24414 0.24414 0.24414 0.24414 0.24414 0.244141 0.24414 0.24414 0.24414 0.244141 0.24414 0.244141 0.244141 0.24414 0.24414 0.12207 0.12207 0.244141 0.244141 0.244141 0.244141 0.244141 0.244141 0.244141 0.244141 0.24414 0.244141 0.244141 0.244141 0.244141 0.244141 0.24414 0.12207 0.12207 0.24414 0.24414 0.24414 0.24414 0.24414 0.244141 0.24414 0.24414 0.24414 0.244141 0.24414 0.244141 0.244141 0.24414 0.24414 0.12207 0.0610351 0.12207 0.12207 0.12207 0.12207 0.12207 0.12207 0.12207 0.12207 0.12207 0.12207 0.12207 0.12207 0.12207 0.12207 0.12207 0.0610351 0.0610352 0.12207 0.12207 0.12207 0.12207 0.12207 0.12207 0.12207 0.12207 0.12207 0.12207 0.12207 0.12207 0.12207 0.12207 0.12207 0.0610352 0.12207 0.244141 0.244141 0.244141 0.244141 0.244141 0.244141 0.244141 0.244141 0.244141 0.244141 0.244141 0.244141 0.244141 0.244141 0.244141 0.12207 0.12207 0.244141 0.244141 0.244141 0.244141 0.244141 0.244141 0.244141 0.244141 0.244141 0.244141 0.244141 0.244141 0.244141 0.244141 0.244141 0.12207 0.12207 0.244141 0.244141 0.244141 0.244141 0.244141 0.244141 0.244141 0.244141 0.244141 0.244141 0.244141 0.244141 0.244141 0.244141 0.244141 0.12207 0.12207 0.244141 0.244141 0.244141 0.244141 0.244141 0.244141 0.244141 0.244141 0.244141 0.244141 0.244141 0.244141 0.244141 0.244141 0.244141 0.12207 0.12207 0.244141 0.244141 0.244141 0.244141 0.244141 0.244141 0.244141 0.244141 0.244141 0.244141 0.244141 0.244141 0.244141 0.244141 0.244141 0.12207 0.12207 0.244141 0.244141 0.244141 0.244141 0.244141 0.244141 0.244141 0.244141 0.244141 0.244141 0.244141 0.244141 0.244141 0.244141 0.244141 0.12207 0.12207 0.244141 0.244141 0.244141 0.244141 0.244141 0.244141 0.244141 0.244141 0.244141 0.244141 0.244141 0.244141 0.244141 0.244141 0.244141 0.12207 0.12207 0.244141 0.244141 0.244141 0.244141 0.244141 0.244141 0.244141 0.244141 0.244141 0.244141 0.244141 0.244141 0.244141 0.244141 0.24414 0.12207 0.12207 0.244141 0.244141 0.244141 0.244141 0.244141 0.244141 0.244141 0.244141 0.244141 0.244141 0.244141 0.244141 0.244141 0.244141 0.244141 0.12207 0.12207 0.244141 0.244141 0.244141 0.244141 0.244141 0.244141 0.244141 0.244141 0.244141 0.244141 0.244141 0.244141 0.244141 0.244141 0.244141 0.12207 0.12207 0.244141 0.244141 0.244141 0.244141 0.244141 0.244141 0.244141 0.244141 0.244141 0.244141 0.244141 0.244141 0.244141 0.244141 0.244141 0.12207 0.12207 0.244141 0.244141 0.244141 0.244141 0.244141 0.244141 0.244141 0.244141 0.244141 0.244141 0.244141 0.244141 0.244141 0.244141 0.244141 0.12207 0.12207 0.244141 0.244141 0.244141 0.244141 0.244141 0.244141 0.244141 0.244141 0.244141 0.244141 0.244141 0.244141 0.244141 0.244141 0.244141 0.12207 0.12207 0.244141 0.244141 0.244141 0.244141 0.244141 0.244141 0.244141 0.24414 0.24414 0.244141 0.244141 0.244141 0.244141 0.24414 0.24414 0.12207 0.12207 0.244141 0.244141 0.244141 0.244141 0.244141 0.244141 0.244141 0.244141 0.244141 0.244141 0.244141 0.244141 0.244141 0.244141 0.244141 0.12207 0.12207 0.244141 0.244141 0.244141 0.244141 0.244141 0.244141 0.244141 0.244141 0.244141 0.244141 0.244141 0.244141 0.244141 0.244141 0.244141 0.12207 0.12207 0.244141 0.244141 0.244141 0.244141 0.244141 0.244141 0.244141 0.244141 0.244141 0.244141 0.244141 0.244141 0.244141 0.244141 0.244141 0.12207 0.12207 0.24414 0.24414 0.24414 0.24414 0.24414 0.244141 0.244141 0.24414 0.24414 0.244141 0.24414 0.244141 0.244141 0.24414 0.24414 0.12207 0.12207 0.244141 0.244141 0.244141 0.244141 0.244141 0.244141 0.244141 0.244141 0.244141 0.244141 0.244141 0.244141 0.244141 0.244141 0.244141 0.12207 0.12207 0.244141 0.244141 0.244141 0.244141 0.244141 0.244141 0.244141 0.244141 0.244141 0.244141 0.244141 0.244141 0.244141 0.244141 0.244141 0.12207 0.12207 0.244141 0.244141 0.244141 0.244141 0.244141 0.244141 0.244141 0.244141 0.244141 0.244141 0.244141 0.244141 0.244141 0.244141 0.244141 0.12207 0.12207 0.244141 0.244141 0.244141 0.244141 0.244141 0.244141 0.244141 0.244141 0.244141 0.244141 0.244141 0.244141 0.244141 0.244141 0.244141 0.12207 0.12207 0.244141 0.244141 0.244141 0.244141 0.244141 0.244141 0.244141 0.244141 0.244141 0.244141 0.244141 0.244141 0.244141 0.244141 0.244141 0.12207 0.12207 0.244141 0.244141 0.244141 0.244141 0.244141 0.244141 0.244141 0.244141 0.244141 0.244141 0.244141 0.244141 0.244141 0.244141 0.244141 0.12207 0.12207 0.244141 0.244141 0.244141 0.244141 0.244141 0.244141 0.244141 0.244141 0.244141 0.244141 0.244141 0.244141 0.244141 0.244141 0.244141 0.12207 0.12207 0.24414 0.24414 0.24414 0.24414 0.24414 0.24414 0.24414 0.24414 0.24414 0.24414 0.24414 0.24414 0.244141 0.24414 0.24414 0.12207 0.12207 0.24414 0.24414 0.24414 0.24414 0.24414 0.24414 0.24414 0.24414 0.24414 0.24414 0.24414 0.24414 0.24414 0.24414 0.24414 0.12207 0.12207 0.244141 0.244141 0.244141 0.244141 0.244141 0.244141 0.244141 0.244141 0.24414 0.244141 0.244141 0.244141 0.244141 0.244141 0.244141 0.12207 0.12207 0.24414 0.24414 0.24414 0.24414 0.24414 0.244141 0.24414 0.24414 0.24414 0.24414 0.24414 0.244141 0.244141 0.24414 0.24414 0.12207 0.12207 0.244141 0.244141 0.244141 0.244141 0.244141 0.244141 0.244141 0.24414 0.24414 0.244141 0.244141 0.244141 0.244141 0.244141 0.24414 0.12207 0.12207 0.24414 0.24414 0.24414 0.24414 0.24414 0.244141 0.24414 0.24414 0.24414 0.24414 0.24414 0.244141 0.244141 0.24414 0.24414 0.12207 0.0610351 0.12207 0.12207 0.12207 0.12207 0.12207 0.12207 0.12207 0.12207 0.12207 0.12207 0.12207 0.12207 0.12207 0.12207 0.12207 0.0610351 0.0610351 0.12207 0.12207 0.12207 0.12207 0.12207 0.12207 0.12207 0.12207 0.12207 0.12207 0.12207 0.12207 0.12207 0.12207 0.12207 0.0610351 0.12207 0.244141 0.244141 0.244141 0.244141 0.244141 0.244141 0.244141 0.244141 0.244141 0.244141 0.244141 0.244141 0.244141 0.244141 0.244141 0.12207 0.12207 0.244141 0.244141 0.244141 0.244141 0.244141 0.244141 0.244141 0.244141 0.244141 0.244141 0.244141 0.244141 0.244141 0.244141 0.244141 0.12207 0.12207 0.244141 0.244141 0.244141 0.244141 0.244141 0.244141 0.244141 0.244141 0.244141 0.244141 0.244141 0.244141 0.244141 0.2441