# vtk DataFile Version 5.1
vtk output
ASCII

DATASET UNSTRUCTURED_GRID
POINTS 6253 float
0 0 0
0.166667 0 0
0.333333 0 0
0.5 0 0
0.666667 0 0
0.833333 0 0
1 0 0
1.16667 0 0
1.33333 0 0
1.5 0 0
1.66667 0 0
1.83333 0 0
2 0 0
2.16667 0 0
2.33333 0 0
2.5 0 0
2.66667 0 0
2.83333 0 0
3 0 0
0 0.166667 0
0.166667 0.166667 0
0.333333 0.166667 0
0.5 0.166667 0
0.666667 0.166667 0
0.833333 0.166667 0
1 0.166667 0
1.16667 0.166667 0
1.33333 0.166667 0
1.5 0.166667 0
1.66667 0.166667 0
1.83333 0.166667 0
2 0.166667 0
2.16667 0.166667 0
2.33333 0.166667 0
2.5 0.166667 0
2.66667 0.166667 0
2.83333 0.166667 0
3 0.166667 0
0 0.333333 0
0.166667 0.333333 0
0.333333 0.333333 0
0.5 0.333333 0
0.666667 0.333333 0
0.833333 0.333333 0
1 0.333333 0
1.16667 0.333333 0
1.33333 0.333333 0
1.5 0.333333 0
1.66667 0.333333 0
1.83333 0.333333 0
2 0.333333 0
2.16667 0.333333 0
2.33333 0.333333 0
2.5 0.333333 0
2.66667 0.333333 0
2.83333 0.333333 0
3 0.333333 0
0 0.5 0
0.166667 0.5 0
0.333333 0.5 0
0.5 0.5 0
0.666667 0.5 0
0.833333 0.5 0
1 0.5 0
1.16667 0.5 0
1.33333 0.5 0
1.5 0.5 0
1.66667 0.5 0
1.83333 0.5 0
2 0.5 0
2.16667 0.5 0
2.33333 0.5 0
2.5 0.5 0
2.66667 0.5 0
2.83333 0.5 0
3 0.5 0
0 0.666667 0
0.166667 0.666667 0
0.333333 0.666667 0
0.5 0.666667 0
0.666667 0.666667 0
0.833333 0.666667 0
1 0.666667 0
1.16667 0.666667 0
1.33333 0.666667 0
1.5 0.666667 0
1.66667 0.666667 0
1.83333 0.666667 0
2 0.666667 0
2.16667 0.666667 0
2.33333 0.666667 0
2.5 0.666667 0
2.66667 0.666667 0
2.83333 0.666667 0
3 0.666667 0
0 0.833333 0
0.166667 0.833333 0
0.333333 0.833333 0
0.5 0.833333 0
0.666667 0.833333 0
0.833333 0.833333 0
1 0.833333 0
1.16667 0.833333 0
1.33333 0.833333 0
1.5 0.833333 0
1.66667 0.833333 0
1.83333 0.833333 0
2 0.833333 0
2.16667 0.833333 0
2.33333 0.833333 0
2.5 0.833333 0
2.66667 0.833333 0
2.83333 0.833333 0
3 0.833333 0
0 1 0
0.166667 1 0
0.333333 1 0
0.5 1 0
0.666667 1 0
0.833333 1 0
1 1 0
1.16667 1 0
1.33333 1 0
1.5 1 0
1.66667 1 0
1.83333 1 0
2 1 0
2.16667 1 0
2.33333 1 0
2.5 1 0
2.66667 1 0
2.83333 1 0
3 1 0
0 0 0.166667
0.166667 0 0.166667
0.333333 0 0.166667
0.5 0 0.166667
0.666667 0 0.166667
0.833333 0 0.166667
1 0 0.166667
1.16667 0 0.166667
1.33333 0 0.166667
1.5 0 0.166667
1.66667 0 0.166667
1.83333 0 0.166667
2 0 0.166667
2.16667 0 0.166667
2.33333 0 0.166667
2.5 0 0.166667
2.66667 0 0.166667
2.83333 0 0.166667
3 0 0.166667
0 0.166667 0.166667
0.166667 0.166667 0.166667
0.333333 0.166667 0.166667
0.5 0.166667 0.166667
0.666667 0.166667 0.166667
0.833333 0.166667 0.166667
1 0.166667 0.166667
1.16667 0.166667 0.166667
1.33333 0.166667 0.166667
1.5 0.166667 0.166667
1.66667 0.166667 0.166667
1.83333 0.166667 0.166667
2 0.166667 0.166667
2.16667 0.166667 0.166667
2.33333 0.166667 0.166667
2.5 0.166667 0.166667
2.66667 0.166667 0.166667
2.83333 0.166667 0.166667
3 0.166667 0.166667
0 0.333333 0.166667
0.166667 0.333333 0.166667
0.333333 0.333333 0.166667
0.5 0.333333 0.166667
0.666667 0.333333 0.166667
0.833333 0.333333 0.166667
1 0.333333 0.166667
1.16667 0.333333 0.166667
1.33333 0.333333 0.166667
1.5 0.333333 0.166667
1.66667 0.333333 0.166667
1.83333 0.333333 0.166667
2 0.333333 0.166667
2.16667 0.333333 0.166667
2.33333 0.333333 0.166667
2.5 0.333333 0.166667
2.66667 0.333333 0.166667
2.83333 0.333333 0.166667
3 0.333333 0.166667
0 0.5 0.166667
0.166667 0.5 0.166667
0.333333 0.5 0.166667
0.5 0.5 0.166667
0.666667 0.5 0.166667
0.833333 0.5 0.166667
1 0.5 0.166667
1.16667 0.5 0.166667
1.33333 0.5 0.166667
1.5 0.5 0.166667
1.66667 0.5 0.166667
1.83333 0.5 0.166667
2 0.5 0.166667
2.16667 0.5 0.166667
2.33333 0.5 0.166667
2.5 0.5 0.166667
2.66667 0.5 0.166667
2.83333 0.5 0.166667
3 0.5 0.166667
0 0.666667 0.166667
0.166667 0.666667 0.166667
0.333333 0.666667 0.166667
0.5 0.666667 0.166667
0.666667 0.666667 0.166667
0.833333 0.666667 0.166667
1 0.666667 0.166667
1.16667 0.666667 0.166667
1.33333 0.666667 0.166667
1.5 0.666667 0.166667
1.66667 0.666667 0.166667
1.83333 0.666667 0.166667
2 0.666667 0.166667
2.16667 0.666667 0.166667
2.33333 0.666667 0.166667
2.5 0.666667 0.166667
2.66667 0.666667 0.166667
2.83333 0.666667 0.166667
3 0.666667 0.166667
0 0.833333 0.166667
0.166667 0.833333 0.166667
0.333333 0.833333 0.166667
0.5 0.833333 0.166667
0.666667 0.833333 0.166667
0.833333 0.833333 0.166667
1 0.833333 0.166667
1.16667 0.833333 0.166667
1.33333 0.833333 0.166667
1.5 0.833333 0.166667
1.66667 0.833333 0.166667
1.83333 0.833333 0.166667
2 0.833333 0.166667
2.16667 0.833333 0.166667
2.33333 0.833333 0.166667
2.5 0.833333 0.166667
2.66667 0.833333 0.166667
2.83333 0.833333 0.166667
3 0.833333 0.166667
0 1 0.166667
0.166667 1 0.166667
0.333333 1 0.166667
0.5 1 0.166667
0.666667 1 0.166667
0.833333 1 0.166667
1 1 0.166667
1.16667 1 0.166667
1.33333 1 0.166667
1.5 1 0.166667
1.66667 1 0.166667
1.83333 1 0.166667
2 1 0.166667
2.16667 1 0.166667
2.33333 1 0.166667
2.5 1 0.166667
2.66667 1 0.166667
2.83333 1 0.166667
3 1 0.166667
0 0 0.333333
0.166667 0 0.333333
0.333333 0 0.333333
0.5 0 0.333333
0.666667 0 0.333333
0.833333 0 0.333333
1 0 0.333333
1.16667 0 0.333333
1.33333 0 0.333333
1.5 0 0.333333
1.66667 0 0.333333
1.83333 0 0.333333
2 0 0.333333
2.16667 0 0.333333
2.33333 0 0.333333
2.5 0 0.333333
2.66667 0 0.333333
2.83333 0 0.333333
3 0 0.333333
0 0.166667 0.333333
0.166667 0.166667 0.333333
0.333333 0.166667 0.333333
0.5 0.166667 0.333333
0.666667 0.166667 0.333333
0.833333 0.166667 0.333333
1 0.166667 0.333333
1.16667 0.166667 0.333333
1.33333 0.166667 0.333333
1.5 0.166667 0.333333
1.66667 0.166667 0.333333
1.83333 0.166667 0.333333
2 0.166667 0.333333
2.16667 0.166667 0.333333
2.33333 0.166667 0.333333
2.5 0.166667 0.333333
2.66667 0.166667 0.333333
2.83333 0.166667 0.333333
3 0.166667 0.333333
0 0.333333 0.333333
0.166667 0.333333 0.333333
0.333333 0.333333 0.333333
0.5 0.333333 0.333333
0.666667 0.333333 0.333333
0.833333 0.333333 0.333333
1 0.333333 0.333333
1.16667 0.333333 0.333333
1.33333 0.333333 0.333333
1.5 0.333333 0.333333
1.66667 0.333333 0.333333
1.83333 0.333333 0.333333
2 0.333333 0.333333
2.16667 0.333333 0.333333
2.33333 0.333333 0.333333
2.5 0.333333 0.333333
2.66667 0.333333 0.333333
2.83333 0.333333 0.333333
3 0.333333 0.333333
0 0.5 0.333333
0.166667 0.5 0.333333
0.333333 0.5 0.333333
0.5 0.5 0.333333
0.666667 0.5 0.333333
0.833333 0.5 0.333333
1 0.5 0.333333
1.16667 0.5 0.333333
1.33333 0.5 0.333333
1.5 0.5 0.333333
1.66667 0.5 0.333333
1.83333 0.5 0.333333
2 0.5 0.333333
2.16667 0.5 0.333333
2.33333 0.5 0.333333
2.5 0.5 0.333333
2.66667 0.5 0.333333
2.83333 0.5 0.333333
3 0.5 0.333333
0 0.666667 0.333333
0.166667 0.666667 0.333333
0.333333 0.666667 0.333333
0.5 0.666667 0.333333
0.666667 0.666667 0.333333
0.833333 0.666667 0.333333
1 0.666667 0.333333
1.16667 0.666667 0.333333
1.33333 0.666667 0.333333
1.5 0.666667 0.333333
1.66667 0.666667 0.333333
1.83333 0.666667 0.333333
2 0.666667 0.333333
2.16667 0.666667 0.333333
2.33333 0.666667 0.333333
2.5 0.666667 0.333333
2.66667 0.666667 0.333333
2.83333 0.666667 0.333333
3 0.666667 0.333333
0 0.833333 0.333333
0.166667 0.833333 0.333333
0.333333 0.833333 0.333333
0.5 0.833333 0.333333
0.666667 0.833333 0.333333
0.833333 0.833333 0.333333
1 0.833333 0.333333
1.16667 0.833333 0.333333
1.33333 0.833333 0.333333
1.5 0.833333 0.333333
1.66667 0.833333 0.333333
1.83333 0.833333 0.333333
2 0.833333 0.333333
2.16667 0.833333 0.333333
2.33333 0.833333 0.333333
2.5 0.833333 0.333333
2.66667 0.833333 0.333333
2.83333 0.833333 0.333333
3 0.833333 0.333333
0 1 0.333333
0.166667 1 0.333333
0.333333 1 0.333333
0.5 1 0.333333
0.666667 1 0.333333
0.833333 1 0.333333
1 1 0.333333
1.16667 1 0.333333
1.33333 1 0.333333
1.5 1 0.333333
1.66667 1 0.333333
1.83333 1 0.333333
2 1 0.333333
2.16667 1 0.333333
2.33333 1 0.333333
2.5 1 0.333333
2.66667 1 0.333333
2.83333 1 0.333333
3 1 0.333333
0 0 0.5
0.166667 0 0.5
0.333333 0 0.5
0.5 0 0.5
0.666667 0 0.5
0.833333 0 0.5
1 0 0.5
1.16667 0 0.5
1.33333 0 0.5
1.5 0 0.5
1.66667 0 0.5
1.83333 0 0.5
2 0 0.5
2.16667 0 0.5
2.33333 0 0.5
2.5 0 0.5
2.66667 0 0.5
2.83333 0 0.5
3 0 0.5
0 0.166667 0.5
0.166667 0.166667 0.5
0.333333 0.166667 0.5
0.5 0.166667 0.5
0.666667 0.166667 0.5
0.833333 0.166667 0.5
1 0.166667 0.5
1.16667 0.166667 0.5
1.33333 0.166667 0.5
1.5 0.166667 0.5
1.66667 0.166667 0.5
1.83333 0.166667 0.5
2 0.166667 0.5
2.16667 0.166667 0.5
2.33333 0.166667 0.5
2.5 0.166667 0.5
2.66667 0.166667 0.5
2.83333 0.166667 0.5
3 0.166667 0.5
0 0.333333 0.5
0.166667 0.333333 0.5
0.333333 0.333333 0.5
0.5 0.333333 0.5
0.666667 0.333333 0.5
0.833333 0.333333 0.5
1 0.333333 0.5
1.16667 0.333333 0.5
1.33333 0.333333 0.5
1.5 0.333333 0.5
1.66667 0.333333 0.5
1.83333 0.333333 0.5
2 0.333333 0.5
2.16667 0.333333 0.5
2.33333 0.333333 0.5
2.5 0.333333 0.5
2.66667 0.333333 0.5
2.83333 0.333333 0.5
3 0.333333 0.5
0 0.5 0.5
0.166667 0.5 0.5
0.333333 0.5 0.5
0.5 0.5 0.5
0.666667 0.5 0.5
0.833333 0.5 0.5
1 0.5 0.5
1.16667 0.5 0.5
1.33333 0.5 0.5
1.5 0.5 0.5
1.66667 0.5 0.5
1.83333 0.5 0.5
2 0.5 0.5
2.16667 0.5 0.5
2.33333 0.5 0.5
2.5 0.5 0.5
2.66667 0.5 0.5
2.83333 0.5 0.5
3 0.5 0.5
0 0.666667 0.5
0.166667 0.666667 0.5
0.333333 0.666667 0.5
0.5 0.666667 0.5
0.666667 0.666667 0.5
0.833333 0.666667 0.5
1 0.666667 0.5
1.16667 0.666667 0.5
1.33333 0.666667 0.5
1.5 0.666667 0.5
1.66667 0.666667 0.5
1.83333 0.666667 0.5
2 0.666667 0.5
2.16667 0.666667 0.5
2.33333 0.666667 0.5
2.5 0.666667 0.5
2.66667 0.666667 0.5
2.83333 0.666667 0.5
3 0.666667 0.5
0 0.833333 0.5
0.166667 0.833333 0.5
0.333333 0.833333 0.5
0.5 0.833333 0.5
0.666667 0.833333 0.5
0.833333 0.833333 0.5
1 0.833333 0.5
1.16667 0.833333 0.5
1.33333 0.833333 0.5
1.5 0.833333 0.5
1.66667 0.833333 0.5
1.83333 0.833333 0.5
2 0.833333 0.5
2.16667 0.833333 0.5
2.33333 0.833333 0.5
2.5 0.833333 0.5
2.66667 0.833333 0.5
2.83333 0.833333 0.5
3 0.833333 0.5
0 1 0.5
0.166667 1 0.5
0.333333 1 0.5
0.5 1 0.5
0.666667 1 0.5
0.833333 1 0.5
1 1 0.5
1.16667 1 0.5
1.33333 1 0.5
1.5 1 0.5
1.66667 1 0.5
1.83333 1 0.5
2 1 0.5
2.16667 1 0.5
2.33333 1 0.5
2.5 1 0.5
2.66667 1 0.5
2.83333 1 0.5
3 1 0.5
0 0 0.666667
[...]
POINT_DATA 6253
SCALARS weights float 1
LOOKUP_TABLE default
0.462963 0.617284 0.617284 0.617284 0.617284 0.617284 0.617285 0.617284 0.617284 0.617284 0.617284 0.617284 0.617284 0.617285 0.617284 0.617284 0.617285 0.617284 0.154321 0.617284 0.925926 0.925926 0.925926 0.925926 0.925926 0.925927 0.925927 0.925926 0.925926 0.925926 0.925926 0.925926 0.925927 0.925926 0.925927 0.925927 0.925927 0.308642 0.617284 0.925926 0.925926 0.925926 0.925926 0.925926 0.925927 0.925927 0.925926 0.925926 0.925926 0.925926 0.925926 0.925927 0.925926 0.925926 0.925927 0.925927 0.308642 0.617284 0.925926 0.925926 0.925926 0.925926 0.925926 0.925927 0.925927 0.925926 0.925926 0.925926 0.925926 0.925926 0.925927 0.925926 0.925927 0.925927 0.925927 0.308642 0.617284 0.925926 0.925926 0.925926 0.925926 0.925926 0.925927 0.925927 0.925926 0.925926 0.925926 0.925926 0.925926 0.925927 0.925926 0.925926 0.925926 0.925927 0.308642 0.617284 0.925926 0.925926 0.925926 0.925926 0.925926 0.925927 0.925927 0.925926 0.925926 0.925926 0.925926 0.925927 0.925927 0.925926 0.925926 0.925927 0.925927 0.308642 0.154321 0.308642 0.308642 0.308642 0.308642 0.308642 0.308642 0.308642 0.308642 0.308642 0.308642 0.308642 0.308642 0.308642 0.308642 0.308642 0.308642 0.308642 0.154321 0.617284 0.925926 0.925926 0.925926 0.925926 0.925926 0.925927 0.925927 0.925926 0.925926 0.925926 0.925926 0.925926 0.925927 0.925926 0.925927 0.925927 0.925927 0.308642 0.925926 1.85185 1.85185 1.85185 1.85185 1.85185 1.85185 1.85185 1.85185 1.85185 1.85185 1.85185 1.85185 1.85185 1.85185 1.85185 1.85185 1.85185 0.925926 0.925926 1.85185 1.85185 1.85185 1.85185 1.85185 1.85185 1.85185 1.85185 1.85185 1.85185 1.85185 1.85185 1.85185 1.85185 1.85185 1.85185 1.85185 0.925926 0.925926 1.85185 1.85185 1.85185 1.85185 1.85185 1.85185 1.85185 1.85185 1.85185 1.85185 1.85185 1.85185 1.85185 1.85185 1.85185 1.85185 1.85185 0.925926 0.925926 1.85185 1.85185 1.85185 1.85185 1.85185 1.85185 1.85185 1.85185 1.85185 1.85185 1.85185 1.85185 1.85185 1.85185 1.85185 1.85185 1.85185 0.925926 0.925926 1.85185 1.85185 1.85185 1.85185 1.85185 1.85185 1.85185 1.85185 1.85185 1.85185 1.85185 1.85185 1.85185 1.85185 1.85185 1.85185 1.85185 0.925926 0.308642 0.925926 0.925926 0.925926 0.925926 0.925926 0.925926 0.925927 0.925926 0.925926 0.925926 0.925926 0.925927 0.925927 0.925927 0.925926 0.925927 0.925927 0.617284 0.617284 0.925926 0.925926 0.925926 0.925926 0.925926 0.925927 0.925926 0.925926 0.925926 0.925926 0.925926 0.925926 0.925927 0.925926 0.925927 0.925927 0.925927 0.308642 0.925926 1.85185 1.85185 1.85185 1.85185 1.85185 1.85185 1.85185 1.85185 1.85185 1.85185 1.85185 1.85185 1.85185 1.85185 1.85185 1.85185 1.85185 0.925926 0.925926 1.85185 1.85185 1.85185 1.85185 1.85185 1.85185 1.85185 1.85185 1.85185 1.85185 1.85185 1.85185 1.85185 1.85185 1.85185 1.85185 1.85185 0.925926 0.925926 1.85185 1.85185 1.85185 1.85185 1.85185 1.85185 1.85185 1.85185 1.85185 1.85185 1.85185 1.85185 1.85185 1.85185 1.85185 1.85185 1.85185 0.925926 0.925926 1.85185 1.85185 1.85185 1.85185 1.85185 1.85185 1.85185 1.85185 1.85185 1.85185 1.85185 1.85185 1.85185 1.85185 1.85185 1.85185 1.85185 0.925926 0.925926 1.85185 1.85185 1.85185 1.85185 1.85185 1.85185 1.85185 1.85185 1.85185 1.85185 1.85185 1.85185 1.85185 1.85185 1.85185 1.85185 1.85185 0.925926 0.308642 0.925926 0.925926 0.925926 0.925926 0.925926 0.925926 0.925927 0.925926 0.925926 0.925926 0.925926 0.925927 0.925927 0.925927 0.925926 0.925926 0.925927 0.617284 0.617284 0.925926 0.925926 0.925926 0.925926 0.925926 0.925927 0.925927 0.925926 0.925926 0.925926 0.925926 0.925926 0.925927 0.925926 0.925927 0.925927 0.925927 0.308642 0.925926 1.85185 1.85185 1.85185 1.85185 1.85185 1.85185 1.85185 1.85185 1.85185 1.85185 1.85185 1.85185 1.85185 1.85185 1.85185 1.85185 1.85185 0.925926 0.925926 1.85185 1.85185 1.85185 1.85185 1.85185 1.85185 1.85185 1.85185 1.85185 1.85185 1.85185 1.85185 1.85185 1.85185 1.85185 1.85185 1.85185 0.925926 0.925926 1.85185 1.85185 1.85185 1.85185 1.85185 1.85185 1.85185 1.85185 1.85185 1.85185 1.85185 1.85185 1.85185 1.85185 1.85185 1.85185 1.85185 0.925926 0.925926 1.85185 1.85185 1.85185 1.85185 1.85185 1.85185 1.85185 1.85185 1.85185 1.85185 1.85185 1.85185 1.85185 1.85185 1.85185 1.85185 1.85185 0.925926 0.925926 1.85185 1.85185 1.85185 1.85185 1.85185 1.85185 1.85185 1.85185 1.85185 1.85185 1.85185 1.85185 1.85185 1.85185 1.85185 1.85185 1.85185 0.925926 0.308642 0.925926 0.925926 0.925926 0.925926 0.925926 0.925926 0.925926 0.925926 0.925926 0.925926 0.925926 0.925927 0.925927 0.925927 0.925926 0.925926 0.925927 0.617284 0.617284 0.925926 0.925926 0.925926 0.925926 0.925926 0.925927 0.925927 0.925926 0.925926 0.925926 0.925926 0.925926 0.925927 0.925926 0.925927 0.925927 0.925927 0.308642 0.925926 1.85185 1.85185 1.85185 1.85185 1.85185 1.85185 1.85185 1.85185 1.85185 1.85185 1.85185 1.85185 1.85185 1.85185 1.85185 1.85185 1.85185 0.925926 0.925926 1.85185 1.85185 1.85185 1.85185 1.85185 1.85185 1.85185 1.85185 1.85185 1.85185 1.85185 1.85185 1.85185 1.85185 1.85185 1.85185 1.85185 0.925926 0.925926 1.85185 1.85185 1.85185 1.85185 1.85185 1.85185 1.85185 1.85185 1.85185 1.85185 1.85185 1.85185 1.85185 1.85185 1.85185 1.85185 1.85185 0.925926 0.925926 1.85185 1.85185 1.85185 1.85185 1.85185 1.85185 1.85185 1.85185 1.85185 1.85185 1.85185 1.85185 1.85185 1.85185 1.85185 1.85185 1.85185 0.925926 0.925926 1.85185 1.85185 1.85185 1.85185 1.85185 1.85185 1.85185 1.85185 1.85185 1.85185 1.85185 1.85185 1.85185 1.85185 1.85185 1.85185 1.85185 0.925926 0.308642 0.925926 0.925926 0.925926 0.925926 0.925926 0.925926 0.925927 0.925926 0.925926 0.925926 0.925926 0.925927 0.925927 0.925927 0.925926 0.925927 0.925927 0.617284 0.617284 0.925926 0.925926 0.925926 0.925926 0.925926 0.925927 0.925926 0.925926 0.925926 0.925926 0.925926 0.925926 0.925927 0.925926 0.925927 0.925927 0.925927 0.308642 0.925926 1.85185 1.85185 1.85185 1.85185 1.85185 1.85185 1.85185 1.85185 1.85185 1.85185 1.85185 1.85185 1.85185 1.85185 1.85185 1.85185 1.85185 0.925926 0.925926 1.85185 1.85185 1.85185 1.85185 1.85185 1.85185 1.85185 1.85185 1.85185 1.85185 1.85185 1.85185 1.85185 1.85185 1.85185 1.85185 1.85185 0.925926 0.925926 1.85185 1.85185 1.85185 1.85185 1.85185 1.85185 1.85185 1.85185 1.85185 1.85185 1.85185 1.85185 1.85185 1.85185 1.85185 1.85185 1.85185 0.925926 0.925926 1.85185 1.85185 1.85185 1.85185 1.85185 1.85185 1.85185 1.85185 1.85185 1.85185 1.85185 1.85185 1.85185 1.85185 1.85185 1.85185 1.85185 0.925926 0.925926 1.85185 1.85185 1.85185 1.85185 1.85185 1.85185 1.85185 1.85185 1.85185 1.85185 1.85185 1.85185 1.85185 1.85185 1.85185 1.85185 1.85185 0.925926 0.308642 0.925926 0.925926 0.925926 0.925926 0.925926 0.925926 0.925926 0.925926 0.925926 0.925926 0.925926 0.925927 0.925927 0.925927 0.925926 0.925926 0.925927 0.617284 0.154321 0.308642 0.308642 0.308642 0.308642 0.308642 0.308642 0.308642 0.308642 0.308642 0.308642 0.308642 0.308642 0.308642 0.308642 0.308642 0.308642 0.308642 0.154321 0.308642 0.925926 0.925926 0.925926 0.925926 0.925926 0.925926 0.925926 0.925926 0.925926 0.925926 0.925926 0.925927 0.925926 0.925927 0.925926 0.925927 0.925927 0.617284 0.308642 0.925926 0.925926 0.925926 0.925926 0.925926 0.925926 0.925926 0.925926 0.925926 0.925926 0.925926 0.925927 0.925926 0.925927 0.925926 0.925927 0.925927 0.617284 0.308642 0.925926 0.925926 0.925926 0.925926 0.925926 0.925926 0.925926 0.925926 0.925926 0.925926 0.925926 0.925927 0.925926 0.925927 0.925926 0.925927 0.925927 0.617284 0.308642 0.925926 0.925926 0.925926 0.925926 0.925926 0.925926 0.925926 0.925926 0.925925 0.925926 0.925926 0.925926 0.925926 0.925927 0.925926 0.925927 0.925927 0.617284 0.308642 0.925926 0.925926 0.925926 0.925926 0.925926 0.925926 0.925926 0.925926 0.925925 0.925926 0.925926 0.925926 0.925926 0.925927 0.925926 0.925927 0.925927 0.617284 0.154321 0.617284 0.617284 0.617284 0.617284 0.617284 0.617284 0.617284 0.617284 0.617284 0.617284 0.617284 0.617284 0.617284 0.617285 0.617284 0.617284 0.617285 0.462963 0.154321 0.308642 0.462963 0.154321 0.231482 0.462963 0.308642 0.462963 0.231482 0.154321 0.154321 0.231482 0.154321 0.462963 0.231482 0.231482 0.154321 0.308642 0.231482 0.308642 0.462963 0.154321 0.231482 0.462963 0.308642 0.462963 0.231482 0.154321 0.462963 0.231482 0.154321 0.308642 0.231482 0.308642 0.462963 0.154321 0.231482 0.462963 0.308642 0.462963 0.231482 0.154321 0.462963 0.231482 0.154321 0.308642 0.231482 0.308642 0.462963 0.154321 0.231482 0.462963 0.308642 0.462963 0.231482 0.154321 0.462963 0.231481 0.154321 0.308642 0.231481 0.308642 0.462963 0.154321 0.231482 0.462963 0.308642 0.462963 0.231481 0.154321 0.462963 0.231482 0.154321 0.308642 0.231482 0.308642 0.462963 0.154321 0.231482 0.462963 0.308642 0.462963 0.231482 0.154321 0.462963 0.231482 0.154321 0.308642 0.231482 0.308642 0.462964 0.154321 0.231482 0.462963 0.308642 0.462963 0.231482 0.154321 0.462963 0.231482 0.154321 0.308642 0.231482 0.308642 0.462963 0.154321 0.231482 0.462963 0.308642 0.462963 0.231482 0.154321 0.462963 0.231482 0.154321 0.308642 0.231482 0.308642 0.462963 0.154321 0.231481 0.462963 0.308642 0.462963 0.231481 0.154321 0.462963 0.231481 0.154321 0.308642 0.231481 0.308642 0.462963 0.154321 0.231481 0.462963 0.308642 0.462963 0.231481 0.154321 0.462963 0.231482 0.154321 0.308642 0.231482 0.308642 0.462963 0.154321 0.231481 0.462963 0.308642 0.462963 0.231481 0.154321 0.462963 0.231482 0.154321 0.308642 0.231482 0.308642 0.462963 0.154321 0.231481 0.462963 0.308642 0.462963 0.231481 0.154321 0.462963 0.231482 0.154321 0.308642 0.231482 0.308642 0.462963 0.154321 0.231481 0.462963 0.308642 0.462963 0.231481 0.154321 0.462963 0.231481 0.154321 0.308642 0.231482 0.308643 0.462964 0.154321 0.231482 0.462963 0.308642 0.462963 0.231482 0.154321 0.462964 0.231482 0.154321 0.308642 0.231482 0.308642 0.462963 0.154321 0.231481 0.462963 0.308642 0.462963 0.231481 0.154321 0.462963 0.231482 0.154321 0.308642 0.231482 0.308642 0.462964 0.154321 0.231481 0.462963 0.308642 0.462963 0.231482 0.154321 0.462964 0.231482 0.154321 0.308642 0.231482 0.308642 0.462964 0.154321 0.231482 0.462964 0.308643 0.462964 0.231482 0.154321 0.462964 0.231482 0.154321 0.308642 0.231482 0.308642 0.462963 0.154321 0.231481 0.231481 0.308642 0.231481 0.231481 0.154321 0.462963 0.0771604 0.154321 0.154321 0.0771604 0.154321 0.308642 0.462963 0.154321 0.231482 0.462963 0.308642 0.462963 0.231482 0.154321 0.462963 0.231482 0.308642 0.231482 0.308642 0.462963 0.154321 0.231482 0.462963 0.308642 0.462963 0.462963 0.308642 0.231482 0.308642 0.462963 0.154321 0.231482 0.462963 0.308642 0.462963 0.462963 0.308642 0.231482 0.308642 0.462963 0.154321 0.231482 0.462963 0.308642 0.462963 0.462963 0.308642 0.231482 0.308642 0.462963 0.154321 0.231482 0.462963 0.308642 0.462963 0.462963 0.308642 0.231482 0.308642 0.462963 0.154321 0.231482 0.462963 0.308642 0.462963 0.462963 0.308642 0.231482 0.308642 0.462964 0.154321 0.231482 0.462963 0.308642 0.462963 0.462963 0.308642 0.231482 0.308642 0.462963 0.154321 0.231482 0.462963 0.308642 0.462963 0.462963 0.308642 0.231482 0.308642 0.462963 0.154321 0.231481 0.462963 0.308642 0.462963 0.462963 0.308642 0.231481 0.308642 0.462963 0.154321 0.231482 0.462963 0.308642 0.462963 0.462963 0.308642 0.231482 0.308642 0.462963 0.154321 0.231481 0.462963 0.308642 0.462963 0.462963 0.308642 0.231482 0.308642 0.462963 0.154321 0.231481 0.462963 0.308642 0.462963 0.462963 0.308642 0.231482 0.308642 0.462963 0.154321 0.231481 0.462963 0.308642 0.462963 0.462963 0.308642 0.231482 0.308643 0.462964 0.154321 0.231482 0.462963 0.308643 0.462963 0.462964 0.308642 0.231482 0.308642 0.462963 0.154321 0.231481 0.462963 0.308642 0.462963 0.462963 0.308642 0.231482 0.308642 0.462964 0.154321 0.231481 0.462963 0.308642 0.462963 0.462964 0.308642 0.231482 0.308642 0.462964 0.154321 0.231482 0.462964 0.308643 0.462964 0.462964 0.308642 0.231482 0.308642 0.462963 0.154321 0.231481 0.231481 0.308642 0.231481 0.462963 0.154321 0.0771604 0.154321 0.308642 0.462963 0.154321 0.231482 0.462963 0.308642 0.462963 0.231482 0.154321 0.462963 0.231482 0.308642 0.231481 0.308642 0.462963 0.154321 0.231482 0.462963 0.308642 0.462963 0.462963 0.308642 0.231481 0.308642 0.462963 0.154321 0.231482 0.462963 0.308642 0.462963 0.462963 0.308642 0.231482 0.308642 0.462963 0.154321 0.231482 0.462963 0.308642 0.462963 0.462963 0.308642 0.231481 0.308642 0.462963 0.154321 0.231482 0.462963 0.308642 0.462963 0.462963 0.308642 0.231482 0.308642 0.462963 0.154321 0.231482 0.462963 0.308642 0.462963 0.462963 0.308642 0.231482 0.308642 0.462963 0.154321 0.231482 0.462963 0.308642 0.462963 0.462963 0.308642 0.231482 0.308642 0.462963 0.154321 0.231482 0.462963 0.308642 0.462963 0.462963 0.308642 0.231481 0.308642 0.462963 0.154321 0.231481 0.462963 0.308642 0.462963 0.462963 0.308642 0.231481 0.308642 0.462963 0.154321 0.231482 0.462963 0.308642 0.462963 0.462963 0.308642 0.231481 0.308642 0.462963 0.154321 0.231481 0.462963 0.308642 0.462963 0.462963 0.308642 0.231482 0.308642 0.462963 0.154321 0.231481 0.462963 0.308642 0.462963 0.462963 0.308642 0.231482 0.308642 0.462963 0.154321 0.231481 0.462963 0.308642 0.462963 0.462963 0.308642 0.231482 0.308643 0.462964 0.154321 0.231482 0.462963 0.308642 0.462963 0.462964 0.308642 0.231482 0.308642 0.462963 0.154321 0.231481 0.462963 0.308642 0.462963 0.462963 0.308642 0.231482 0.308642 0.462964 0.154321 0.231481 0.462963 0.308642 0.462963 0.462964 0.308642 0.231481 0.308642 0.462964 0.154321 0.231482 0.462964 0.308642 0.462964 0.462964 0.308642 0.231482 0.308642 0.462963 0.154321 0.231481 0.231481 0.308642 0.231481 0.462963 0.154321 0.0771604 0.154321 0.308642 0.462963 0.154321 0.231482 0.462963 0.308642 0.462963 0.231481 0.154321 0.462963 0.231482 0.308642 0.231482 0.308642 0.462963 0.154321 0.231482 0.462963 0.308642 0.462963 0.462963 0.308642 0.231482 0.308642 0.462963 0.154321 0.231482 0.462963 0.308642 0.462963 0.462963 0.308642 0.231482 0.308642 0.462963 0.154321 0.231482 0.462963 0.308642 0.462963 0.462963 0.308642 0.231481 0.308642 0.462963 0.154321 0.231481 0.462963 0.308642 0.462963 0.462963 0.308642 0.231482 0.308642 0.462963 0.154321 0.231482 0.462963 0.308642 0.462963 0.462963 0.308642 0.231482 0.308642 0.462964 0.154321 0.231482 0.462963 0.308642 0.462963 0.462963 0.308642 0.231482 0.308642 0.462963 0.154321 0.231482 0.462963 0.308642 0.462963 0.462963 0.308642 0.231482 0.308642 0.462963 0.154321 0.231481 0.462963 0.308642 0.462963 0.462963 0.308642 0.231481 0.308642 0.462963 0.154321 0.231481 0.462963 0.308642 0.462963 0.462963 0.308642 0.231482 0.308642 0.462963 0.154321 0.231481 0.462963 0.308642 0.462963 0.462963 0.308642 0.231482 0.308642 0.462963 0.154321 0.231481 0.462963 0.308642 0.462963 0.462963 0.308642 0.231482 0.308642 0.462963 0.154321 0.231481 0.462963 0.308642 0.462963 0.462963 0.308642 0.231482 0.308643 0.462964 0.154321 0.231482 0.462963 0.308643 0.462963 0.462964 0.308642 0.231482 0.308642 0.462963 0.154321 0.231481 0.462963 0.308642 0.462963 0.462963 0.308642 0.231482 0.308642 0.462964 0.154321 0.231481 0.462963 0.308642 0.462963 0.462963 0.308642 0.231481 0.308642 0.462964 0.154321 0.231482 0.462963 0.308643 0.462964 0.462964 0.308642 0.231482 0.308642 0.462963 0.154321 0.231481 0.231481 0.308642 0.231481 0.462963 0.154321 0.0771604 0.154321 0.308642 0.462963 0.154321 0.231482 0.462963 0.308642 0.462963 0.231482 0.154321 0.462963 0.231482 0.308642 0.231482 0.308642 0.462963 0.154321 0.231482 0.462963 0.308642 0.462963 0.462963 0.308642 0.231482 0.308642 0.462963 0.154321 0.231482 0.462963 0.308642 0.462963 0.462963 0.308642 0.231482 0.308642 0.462963 0.154321 0.231482 0.462963 0.308642 0.462963 0.462963 0.308642 0.231482 0.308642 0.462963 0.154321 0.231482 0.462963 0.308642 0.462963 0.462963 0.308642 0.231482 0.308642 0.462963 0.154321 0.231482 0.462963 0.308642 0.462963 0.462963 0.308642 0.231482 0.308642 0.462963 0.154321 0.231482 0.462963 0.308642 0.462963 0.462963 0.308642 0.231482 0.308642 0.462963 0.154321 0.231482 0.462963 0.308642 0.462963 0.462963 0.308642 0.231482 0.308642 0.462963 0.154321 0.231481 0.462963 0.308642 0.462963 0.462963 0.308642 0.231481 0.308642 0.462963 0.154321 0.231481 0.462963 0.308642 0.462963 0.462963 0.308642 0.231482 0.308642 0.462963 0.154321 0.231481 0.462963 0.308642 0.462963 0.462963 0.308642 0.231482 0.308642 0.462963 0.154321 0.231481 0.462963 0.308642 0.462963 0.462963 0.308642 0.231482 0.308642 0.462963 0.154321 0.231481 0.462963 0.308642 0.462963 0.462963 0.308642 0.231482 0.308643 0.462964 0.154321 0.231482 0.462963 0.308642 0.462963 0.462964 0.308642 0.231482 0.308642 0.462963 0.154321 0.231481 0.462963 0.308642 0.462963 0.462963 0.308642 0.231482 0.308642 0.462964 0.154321 0.231481 0.462963 0.308642 0.462963 0.462964 0.308642 0.231482 0.308642 0.462964 0.154321 0.231482 0.462964 0.308642 0.462963 0.462964 0.308642 0.231482 0.308642 0.462963 0.154321 0.231481 0.231481 0.308642 0.231481 0.462963 0.154321 0.0771604 0.154321 0.154321 0.462963 0.154321 0.0771605 0.231482 0.308642 0.462963 0.0771605 0.154321 0.231482 0.231482 0.308642 0.231482 0.154321 0.462963 0.154321 0.0771605 0.231482 0.308642 0.462963 0.231481 0.308642 0.231482 0.154321 0.462963 0.154321 0.0771605 0.231482 0.308642 0.462963 0.231481 0.308642 0.231482 0.154321 0.462963 0.154321 0.0771605 0.231482 0.308642 0.462963 0.231482 0.308642 0.231481 0.154321 0.462963 0.154321 0.0771605 0.231481 0.308642 0.462963 0.231481 0.308642 0.231482 0.154321 0.462963 0.154321 0.0771606 0.231482 0.308642 0.462963 0.231482 0.308642 0.231482 0.154321 0.462963 0.154321 0.0771606 0.231482 0.308642 0.462963 0.231482 0.308642 0.231482 0.154321 0.462963 0.154321 0.0771605 0.231482 0.308642 0.462963 0.231481 0.308642 0.231482 0.154321 0.462963 0.154321 0.0771605 0.231481 0.308642 0.462963 0.231481 0.308642 0.231481 0.154321 0.462963 0.154321 0.0771606 0.231482 0.308642 0.462963 0.231481 0.308642 0.231482 0.154321 0.462963 0.154321 0.0771605 0.231482 0.308642 0.462963 0.231482 0.308642 0.231482 0.154321 0.462963 0.154321 0.0771606 0.231482 0.308642 0.462963 0.231482 0.308642 0.231482 0.154321 0.462963 0.154321 0.0771606 0.231482 0.308642 0.462963 0.231482 0.308642 0.231482 0.154321 0.462964 0.154321 0.0771607 0.231482 0.308642 0.462963 0.231482 0.308642 0.231482 0.154321 0.462963 0.154321 0.0771605 0.231482 0.308642 0.462963 0.231481 0.308642 0.231482 0.154321 0.462964 0.154321 0.0771605 0.231481 0.308642 0.462963 0.231482 0.308642 0.231481 0.154321 0.462964 0.154321 0.0771606 0.231482 0.308642 0.462964 0.231482 0.308642 0.231482 0.154321 0.462963 0.154321 0.0771606 0.154321 0.308642 0.231481 0.231482 0.154321 0.0771604 0.308642 0.462963 0.462963 0.308642 0.462963 0.231482 0.154321 0.154321 0.231482 0.154321 0.462963 0.231482 0.231482 0.308642 0.308642 0.462963 0.462963 0.308642 0.462963 0.231482 0.154321 0.462963 0.231482 0.308642 0.308642 0.462963 0.462963 0.308642 0.462963 0.231482 0.154321 0.462963 0.231482 0.308642 0.308642 0.462963 0.462963 0.308642 0.462963 0.231482 0.154321 0.462963 0.231481 0.308642 0.308642 0.462963 0.462963 0.308642 0.462963 0.231481 0.154321 0.462963 0.231482 0.308642 0.308642 0.462963 0.462963 0.308642 0.462963 0.231482 0.154321 0.462963 0.231482 0.308642 0.308642 0.462964 0.462963 0.308642 0.462963 0.231482 0.154321 0.462963 0.231482 0.308642 0.308642 0.462963 0.462963 0.308642 0.462963 0.231482 0.154321 0.462963 0.231482 0.308642 0.308642 0.462963 0.462963 0.308642 0.462963 0.231481 0.154321 0.462963 0.231482 0.308642 0.308642 0.462963 0.462963 0.308642 0.462963 0.231481 0.154321 0.462963 0.231482 0.308642 0.308642 0.462963 0.462963 0.308642 0.462963 0.231481 0.154321 0.462963 0.231482 0.308642 0.308642 0.462963 0.462963 0.308642 0.462963 0.231481 0.154321 0.462963 0.231482 0.308642 0.308642 0.462963 0.462963 0.308642 0.462963 0.231481 0.154321 0.462963 0.231482 0.308642 0.308643 0.462964 0.462963 0.308643 0.462963 0.231482 0.154321 0.462964 0.231482 0.308642 0.308642 0.462963 0.462963 0.308642 0.462963 0.231481 0.154321 0.46296