# vtk DataFile Version 5.1
vtk output
ASCII

DATASET UNSTRUCTURED_GRID
POINTS 637 float
0 0 0
1 0 0
2 0 0
3 0 0
4 0 0
0 0.5 0
1 0.5 0
2 0.5 0
3 0.5 0
4 0.5 0
0 1 0
1 1 0
2 1 0
3 1 0
4 1 0
0 0 0.5
1 0 0.5
2 0 0.5
3 0 0.5
4 0 0.5
0 0.5 0.5
1 0.5 0.5
2 0.5 0.5
3 0.5 0.5
4 0.5 0.5
0 1 0.5
1 1 0.5
2 1 0.5
3 1 0.5
4 1 0.5
0 0 1
1 0 1
2 0 1
3 0 1
4 0 1
0 0.5 1
1 0.5 1
2 0.5 1
3 0.5 1
4 0.5 1
0 1 1
1 1 1
2 1 1
3 1 1
4 1 1
0 0 0.166667
0 0 0.333333
0.333333 0 0.333333
0.666667 0 0.166667
0.666667 0 0
0.333333 0 0
0 0.166667 0
0 0.333333 0
0 0.166667 0.333333
0 0.333333 0.166667
0.666667 0.166667 0
0.333333 0.333333 0
0 0.166667 0.166667
0.333333 0.166667 0.166667
0.333333 0.166667 0
0.333333 0 0.166667
1 0.166667 0
1 0.333333 0
0.666667 0.5 0
0.333333 0.5 0
0.666667 0.333333 0.166667
0.333333 0.166667 0.333333
0.666667 0.166667 0.166667
0.333333 0.333333 0.166667
0.666667 0.333333 0
0 0.166667 0.5
0 0.333333 0.5
0.333333 0.5 0.333333
0.666667 0.5 0.166667
0 0.5 0.333333
0 0.5 0.166667
0 0.333333 0.333333
0.333333 0.5 0.166667
0.333333 0.333333 0.333333
1 0 0.166667
1 0 0.333333
1 0.166667 0.333333
1 0.333333 0.166667
0.666667 0 0.5
0.333333 0 0.5
0.666667 0 0.333333
0.666667 0.166667 0.333333
1 0.166667 0.166667
0.666667 0.166667 0.5
0.333333 0.333333 0.5
0.333333 0.166667 0.5
0.666667 0.333333 0.333333
1 0.5 0.166667
1 0.5 0.333333
0.333333 0.5 0.5
0.666667 0.5 0.5
1 0.166667 0.5
1 0.333333 0.5
0.666667 0.5 0.333333
0.666667 0.333333 0.5
1 0.333333 0.333333
1.33333 0 0.333333
1.66667 0 0.166667
1.66667 0 0
1.33333 0 0
1.66667 0.166667 0
1.33333 0.333333 0
1.33333 0.166667 0.166667
1.33333 0.166667 0
1.33333 0 0.166667
2 0.166667 0
2 0.333333 0
1.66667 0.5 0
1.33333 0.5 0
1.66667 0.333333 0.166667
1.33333 0.166667 0.333333
1.66667 0.166667 0.166667
1.33333 0.333333 0.166667
1.66667 0.333333 0
1.33333 0.5 0.333333
1.66667 0.5 0.166667
1.33333 0.5 0.166667
1.33333 0.333333 0.333333
2 0 0.166667
2 0 0.333333
2 0.166667 0.333333
2 0.333333 0.166667
1.66667 0 0.5
1.33333 0 0.5
1.66667 0 0.333333
1.66667 0.166667 0.333333
2 0.166667 0.166667
1.66667 0.166667 0.5
1.33333 0.333333 0.5
1.33333 0.166667 0.5
1.66667 0.333333 0.333333
2 0.5 0.166667
2 0.5 0.333333
1.33333 0.5 0.5
1.66667 0.5 0.5
2 0.166667 0.5
2 0.333333 0.5
1.66667 0.5 0.333333
1.66667 0.333333 0.5
2 0.333333 0.333333
2.33333 0 0.333333
2.66667 0 0.166667
2.66667 0 0
2.33333 0 0
2.66667 0.166667 0
2.33333 0.333333 0
2.33333 0.166667 0.166667
2.33333 0.166667 0
2.33333 0 0.166667
3 0.166667 0
3 0.333333 0
2.66667 0.5 0
2.33333 0.5 0
2.66667 0.333333 0.166667
2.33333 0.166667 0.333333
2.66667 0.166667 0.166667
2.33333 0.333333 0.166667
2.66667 0.333333 0
2.33333 0.5 0.333333
2.66667 0.5 0.166667
2.33333 0.5 0.166667
2.33333 0.333333 0.333333
3 0 0.166667
3 0 0.333333
3 0.166667 0.333333
3 0.333333 0.166667
2.66667 0 0.5
2.33333 0 0.5
2.66667 0 0.333333
2.66667 0.166667 0.333333
3 0.166667 0.166667
2.66667 0.166667 0.5
2.33333 0.333333 0.5
2.33333 0.166667 0.5
2.66667 0.333333 0.333333
3 0.5 0.166667
3 0.5 0.333333
2.33333 0.5 0.5
2.66667 0.5 0.5
3 0.166667 0.5
3 0.333333 0.5
2.66667 0.5 0.333333
2.66667 0.333333 0.5
3 0.333333 0.333333
3.33333 0 0.333333
3.66667 0 0.166667
3.66667 0 0
3.33333 0 0
3.66667 0.166667 0
3.33333 0.333333 0
3.33333 0.166667 0.166667
3.33333 0.166667 0
3.33333 0 0.166667
4 0.166667 0
4 0.333333 0
3.66667 0.5 0
3.33333 0.5 0
3.66667 0.333333 0.166667
3.33333 0.166667 0.333333
3.66667 0.166667 0.166667
3.33333 0.333333 0.166667
3.66667 0.333333 0
3.33333 0.5 0.333333
3.66667 0.5 0.166667
3.33333 0.5 0.166667
3.33333 0.333333 0.333333
4 0 0.166667
4 0 0.333333
4 0.166667 0.333333
4 0.333333 0.166667
3.66667 0 0.5
3.33333 0 0.5
3.66667 0 0.333333
3.66667 0.166667 0.333333
4 0.166667 0.166667
3.66667 0.166667 0.5
3.33333 0.333333 0.5
3.33333 0.166667 0.5
3.66667 0.333333 0.333333
4 0.5 0.166667
4 0.5 0.333333
3.33333 0.5 0.5
3.66667 0.5 0.5
4 0.166667 0.5
4 0.333333 0.5
3.66667 0.5 0.333333
3.66667 0.333333 0.5
4 0.333333 0.333333
0 0.666667 0
0 0.833333 0
0 0.666667 0.333333
0 0.833333 0.166667
0.666667 0.666667 0
0.333333 0.833333 0
0 0.666667 0.166667
0.333333 0.666667 0.166667
0.333333 0.666667 0
1 0.666667 0
1 0.833333 0
0.666667 1 0
0.333333 1 0
0.666667 0.833333 0.166667
0.333333 0.666667 0.333333
0.666667 0.666667 0.166667
0.333333 0.833333 0.166667
0.666667 0.833333 0
0 0.666667 0.5
0 0.833333 0.5
0.333333 1 0.333333
0.666667 1 0.166667
0 1 0.333333
0 1 0.166667
0 0.833333 0.333333
0.333333 1 0.166667
0.333333 0.833333 0.333333
1 0.666667 0.333333
1 0.833333 0.166667
0.666667 0.666667 0.333333
1 0.666667 0.166667
0.666667 0.666667 0.5
0.333333 0.833333 0.5
0.333333 0.666667 0.5
0.666667 0.833333 0.333333
1 1 0.166667
1 1 0.333333
0.333333 1 0.5
0.666667 1 0.5
1 0.666667 0.5
1 0.833333 0.5
0.666667 1 0.333333
0.666667 0.833333 0.5
1 0.833333 0.333333
1.66667 0.666667 0
1.33333 0.833333 0
1.33333 0.666667 0.166667
1.33333 0.666667 0
2 0.666667 0
2 0.833333 0
1.66667 1 0
1.33333 1 0
1.66667 0.833333 0.166667
1.33333 0.666667 0.333333
1.66667 0.666667 0.166667
1.33333 0.833333 0.166667
1.66667 0.833333 0
1.33333 1 0.333333
1.66667 1 0.166667
1.33333 1 0.166667
1.33333 0.833333 0.333333
2 0.666667 0.333333
2 0.833333 0.166667
1.66667 0.666667 0.333333
2 0.666667 0.166667
1.66667 0.666667 0.5
1.33333 0.833333 0.5
1.33333 0.666667 0.5
1.66667 0.833333 0.333333
2 1 0.166667
2 1 0.333333
1.33333 1 0.5
1.66667 1 0.5
2 0.666667 0.5
2 0.833333 0.5
1.66667 1 0.333333
1.66667 0.833333 0.5
2 0.833333 0.333333
2.66667 0.666667 0
2.33333 0.833333 0
2.33333 0.666667 0.166667
2.33333 0.666667 0
3 0.666667 0
3 0.833333 0
2.66667 1 0
2.33333 1 0
2.66667 0.833333 0.166667
2.33333 0.666667 0.333333
2.66667 0.666667 0.166667
2.33333 0.833333 0.166667
2.66667 0.833333 0
2.33333 1 0.333333
2.66667 1 0.166667
2.33333 1 0.166667
2.33333 0.833333 0.333333
3 0.666667 0.333333
3 0.833333 0.166667
2.66667 0.666667 0.333333
3 0.666667 0.166667
2.66667 0.666667 0.5
2.33333 0.833333 0.5
2.33333 0.666667 0.5
2.66667 0.833333 0.333333
3 1 0.166667
3 1 0.333333
2.33333 1 0.5
2.66667 1 0.5
3 0.666667 0.5
3 0.833333 0.5
2.66667 1 0.333333
2.66667 0.833333 0.5
3 0.833333 0.333333
3.66667 0.666667 0
3.33333 0.833333 0
3.33333 0.666667 0.166667
3.33333 0.666667 0
4 0.666667 0
4 0.833333 0
3.66667 1 0
3.33333 1 0
3.66667 0.833333 0.166667
3.33333 0.666667 0.333333
3.66667 0.666667 0.166667
3.33333 0.833333 0.166667
3.66667 0.833333 0
3.33333 1 0.333333
3.66667 1 0.166667
3.33333 1 0.166667
3.33333 0.833333 0.333333
4 0.666667 0.333333
4 0.833333 0.166667
3.66667 0.666667 0.333333
4 0.666667 0.166667
3.66667 0.666667 0.5
3.33333 0.833333 0.5
3.33333 0.666667 0.5
3.66667 0.833333 0.333333
4 1 0.166667
4 1 0.333333
3.33333 1 0.5
3.66667 1 0.5
4 0.666667 0.5
4 0.833333 0.5
3.66667 1 0.333333
3.66667 0.833333 0.5
4 0.833333 0.333333
0 0 0.666667
0 0 0.833333
0.333333 0 0.833333
0.666667 0 0.666667
0 0.166667 0.833333
0 0.333333 0.666667
0 0.166667 0.666667
0.333333 0.166667 0.666667
0.333333 0 0.666667
0.666667 0.333333 0.666667
0.333333 0.166667 0.833333
0.666667 0.166667 0.666667
0.333333 0.333333 0.666667
0 0.166667 1
0 0.333333 1
0.333333 0.5 0.833333
0.666667 0.5 0.666667
0 0.5 0.833333
0 0.5 0.666667
0 0.333333 0.833333
0.333333 0.5 0.666667
0.333333 0.333333 0.833333
1 0 0.666667
1 0 0.833333
1 0.166667 0.833333
1 0.333333 0.666667
0.666667 0 1
0.333333 0 1
0.666667 0 0.833333
0.666667 0.166667 0.833333
1 0.166667 0.666667
0.666667 0.166667 1
0.333333 0.333333 1
0.333333 0.166667 1
0.666667 0.333333 0.833333
1 0.5 0.666667
1 0.5 0.833333
0.333333 0.5 1
0.666667 0.5 1
1 0.166667 1
1 0.333333 1
0.666667 0.5 0.833333
0.666667 0.333333 1
1 0.333333 0.833333
1.33333 0 0.833333
1.66667 0 0.666667
1.33333 0.166667 0.666667
1.33333 0 0.666667
1.66667 0.333333 0.666667
1.33333 0.166667 0.833333
1.66667 0.166667 0.666667
1.33333 0.333333 0.666667
1.33333 0.5 0.833333
1.66667 0.5 0.666667
1.33333 0.5 0.666667
1.33333 0.333333 0.833333
2 0 0.666667
2 0 0.833333
2 0.166667 0.833333
2 0.333333 0.666667
1.66667 0 1
1.33333 0 1
1.66667 0 0.833333
1.66667 0.166667 0.833333
2 0.166667 0.666667
1.66667 0.166667 1
1.33333 0.333333 1
1.33333 0.166667 1
1.66667 0.333333 0.833333
2 0.5 0.666667
2 0.5 0.833333
1.33333 0.5 1
1.66667 0.5 1
2 0.166667 1
2 0.333333 1
1.66667 0.5 0.833333
1.66667 0.333333 1
2 0.333333 0.833333
2.33333 0 0.833333
2.66667 0 0.666667
2.33333 0.166667 0.666667
2.33333 0 0.666667
2.66667 0.333333 0.666667
2.33333 0.166667 0.833333
2.66667 0.166667 0.666667
2.33333 0.333333 0.666667
2.33333 0.5 0.833333
2.66667 0.5 0.666667
2.33333 0.5 0.666667
2.33333 0.333333 0.833333
3 0 0.666667
3 0 0.833333
3 0.166667 0.833333
3 0.333333 0.666667
2.66667 0 1
2.33333 0 1
2.66667 0 0.833333
2.66667 0.166667 0.833333
3 0.166667 0.666667
2.66667 0.166667 1
2.33333 0.333333 1
2.33333 0.166667 1
2.66667 0.333333 0.833333
3 0.5 0.666667
3 0.5 0.833333
2.33333 0.5 1
2.66667 0.5 1
3 0.166667 1
3 0.333333 1
2.66667 0.5 0.833333
2.66667 0.333333 1
3 0.333333 0.833333
3.33333 0 0.833333
3.66667 0 0.666667
3.33333 0.166667 0.666667
3.33333 0 0.666667
3.66667 0.333333 0.666667
3.33333 0.166667 0.833333
3.66667 0.166667 0.666667
3.33333 0.333333 0.666667
3.33333 0.5 0.833333
3.66667 0.5 0.666667
3.33333 0.5 0.666667
3.33333 0.333333 0.833333
4 0 0.666667
4 0 0.833333
4 0.166667 0.833333
4 0.333333 0.666667
3.66667 0 1
3.33333 0 1
3.66667 0 0.833333
3.66667 0.166667 0.833333
4 0.166667 0.666667
3.66667 0.166667 1
3.33333 0.333333 1
3.33333 0.166667 1
3.66667 0.333333 0.833333
4 0.5 0.666667
4 0.5 0.833333
3.33333 0.5 1
3.66667 0.5 1
4 0.166667 1
4 0.333333 1
3.66667 0.5 0.833333
3.66667 0.333333 1
4 0.333333 0.833333
0 0.666667 0.833333
0 0.833333 0.666667
0 0.666667 0.666667
0.333333 0.666667 0.666667
0.666667 0.833333 0.666667
0.333333 0.666667 0.833333
0.666667 0.666667 0.666667
0.333333 0.833333 0.666667
0 0.666667 1
0 0.833333 1
0.333333 1 0.833333
0.666667 1 0.666667
0 1 0.833333
0 1 0.666667
0 0.833333 0.833333
0.333333 1 0.666667
0.333333 0.833333 0.833333
1 0.666667 0.833333
1 0.833333 0.666667
0.666667 0.666667 0.833333
1 0.666667 0.666667
0.666667 0.666667 1
0.333333 0.833333 1
0.333333 0.666667 1
0.666667 0.833333 0.833333
1 1 0.666667
1 1 0.833333
0.333333 1 1
0.666667 1 1
1 0.666667 1
1 0.833333 1
0.666667 1 0.833333
0.666667 0.833333 1
1 0.833333 0.833333
1.33333 0.666667 0.666667
1.66667 0.833333 0.666667
1.33333 0.666667 0.833333
1.66667 0.666667 0.666667
1.33333 0.833333 0.666667
1.33333 1 0.833333
1.66667 1 0.666667
1.33333 1 0.666667
1.33333 0.833333 0.833333
2 0.666667 0.833333
2 0.833333 0.666667
1.66667 0.666667 0.833333
2 0.666667 0.666667
1.66667 0.666667 1
1.33333 0.833333 1
1.33333 0.666667 1
1.66667 0.833333 0.833333
2 1 0.666667
2 1 0.833333
1.33333 1 1
1.66667 1 1
2 0.666667 1
2 0.833333 1
1.66667 1 0.833333
1.66667 0.833333 1
2 0.833333 0.833333
2.33333 0.666667 0.666667
2.66667 0.833333 0.666667
2.33333 0.666667 0.833333
2.66667 0.666667 0.666667
2.33333 0.833333 0.666667
2.33333 1 0.833333
2.66667 1 0.666667
2.33333 1 0.666667
2.33333 0.833333 0.833333
3 0.666667 0.833333
3 0.833333 0.666667
2.66667 0.666667 0.833333
3 0.666667 0.666667
2.66667 0.666667 1
2.33333 0.833333 1
2.33333 0.666667 1
2.66667 0.833333 0.833333
3 1 0.666667
3 1 0.833333
2.33333 1 1
2.66667 1 1
3 0.666667 1
3 0.833333 1
2.66667 1 0.833333
2.66667 0.833333 1
3 0.833333 0.833333
3.33333 0.666667 0.666667
3.66667 0.833333 0.666667
3.33333 0.666667 0.833333
3.66667 0.666667 0.666667
3.33333 0.833333 0.666667
3.33333 1 0.833333
3.66667 1 0.666667
3.33333 1 0.666667
3.33333 0.833333 0.833333
4 0.666667 0.833333
4 0.833333 0.666667
3.66667 0.666667 0.833333
4 0.666667 0.666667
3.66667 0.666667 1
3.33333 0.833333 1
3.33333 0.666667 1
3.66667 0.833333 0.833333
4 1 0.666667
4 1 0.833333
3.33333 1 1
3.66667 1 1
4 0.666667 1
4 0.833333 1
3.66667 1 0.833333
3.66667 0.833333 1
4 0.833333 0.833333

CELLS 97 1920
OFFSETS vtktypeint64
0 20 40 60 80 100 120 140 160 180 200 220 240 260 280 300 320 340 360 380 400 420 440 460 480 500 520 540 560 580 600 620 640 660 680 700 720 740 760 780 800 820 840 860 880 900 920 940 960 980 1000 1020 1040 1060 1080 1100 1120 1140 1160 1180 1200 1220 1240 1260 1280 1300 1320 1340 1360 1380 1400 1420 1440 1460 1480 1500 1520 1540 1560 1580 1600 1620 1640 1660 1680 1700 1720 1740 1760 1780 1800 1820 1840 1860 1880 1900 1920 
CONNECTIVITY vtktypeint64
0 15 1 5 45 46 47 48 49 50 51 52 53 54 55 56 57 58 59 60 
5 1 6 15 56 55 61 62 63 64 54 53 48 47 65 66 58 67 68 69 
15 20 6 5 70 71 72 73 65 66 53 54 74 75 63 64 76 77 68 78 
1 16 6 15 79 80 81 82 62 61 48 47 83 84 65 66 85 86 67 87 
6 16 20 15 82 81 88 89 72 73 65 66 83 84 71 70 86 90 78 91 
6 20 16 21 73 72 89 88 81 82 92 93 94 95 96 97 98 99 100 91 
1 16 2 6 79 80 101 102 103 104 61 62 81 82 105 106 87 107 108 109 
6 2 7 16 106 105 110 111 112 113 82 81 102 101 114 115 107 116 117 118 
16 21 7 6 96 97 119 120 114 115 81 82 93 92 112 113 100 121 117 122 
2 17 7 16 123 124 125 126 111 110 102 101 127 128 114 115 129 130 116 131 
7 17 21 16 126 125 132 133 119 120 114 115 127 128 97 96 130 134 122 135 
7 21 17 22 120 119 133 132 125 126 136 137 138 139 140 141 142 143 144 135 
2 17 3 7 123 124 145 146 147 148 110 111 125 126 149 150 131 151 152 153 
7 3 8 17 150 149 154 155 156 157 126 125 146 145 158 159 151 160 161 162 
17 22 8 7 140 141 163 164 158 159 125 126 137 136 156 157 144 165 161 166 
3 18 8 17 167 168 169 170 155 154 146 145 171 172 158 159 173 174 160 175 
8 18 22 17 170 169 176 177 163 164 158 159 171 172 141 140 174 178 166 179 
8 22 18 23 164 163 177 176 169 170 180 181 182 183 184 185 186 187 188 179 
3 18 4 8 167 168 189 190 191 192 154 155 169 170 193 194 175 195 196 197 
8 4 9 18 194 193 198 199 200 201 170 169 190 189 202 203 195 204 205 206 
18 23 9 8 184 185 207 208 202 203 169 170 181 180 200 201 188 209 205 210 
4 19 9 18 211 212 213 214 199 198 190 189 215 216 202 203 217 218 204 219 
9 19 23 18 214 213 220 221 207 208 202 203 215 216 185 184 218 222 210 223 
9 23 19 24 208 207 221 220 213 214 224 225 226 227 228 229 230 231 232 223 
5 20 6 10 75 74 72 73 63 64 233 234 235 236 237 238 239 240 241 77 
10 6 11 20 238 237 242 243 244 245 236 235 73 72 246 247 240 248 249 250 
20 25 11 10 251 252 253 254 246 247 235 236 255 256 244 245 257 258 249 259 
6 21 11 20 92 93 260 261 243 242 73 72 95 94 246 247 98 262 248 263 
11 21 25 20 261 260 264 265 253 254 246 247 95 94 252 251 262 266 259 267 
11 25 21 26 254 253 265 264 260 261 268 269 270 271 272 273 274 275 276 267 
6 21 7 11 92 93 119 120 112 113 242 243 260 261 277 278 263 279 280 121 
11 7 12 21 278 277 281 282 283 284 261 260 120 119 285 286 279 287 288 289 
21 26 12 11 272 273 290 291 285 286 260 261 269 268 283 284 276 292 288 293 
7 22 12 21 136 137 294 295 282 281 120 119 139 138 285 286 142 296 287 297 
12 22 26 21 295 294 298 299 290 291 285 286 139 138 273 272 296 300 293 301 
12 26 22 27 291 290 299 298 294 295 302 303 304 305 306 307 308 309 310 301 
7 22 8 12 136 137 163 164 156 157 281 282 294 295 311 312 297 313 314 165 
12 8 13 22 312 311 315 316 317 318 295 294 164 163 319 320 313 321 322 323 
22 27 13 12 306 307 324 325 319 320 294 295 303 302 317 318 310 326 322 327 
8 23 13 22 180 181 328 329 316 315 164 163 183 182 319 320 186 330 321 331 
13 23 27 22 329 328 332 333 324 325 319 320 183 182 307 306 330 334 327 335 
13 27 23 28 325 324 333 332 328 329 336 337 338 339 340 341 342 343 344 335 
8 23 9 13 180 181 207 208 200 201 315 316 328 329 345 346 331 347 348 209 
13 9 14 23 346 345 349 350 351 352 329 328 208 207 353 354 347 355 356 357 
23 28 14 13 340 341 358 359 353 354 328 329 337 336 351 352 344 360 356 361 
9 24 14 23 224 225 362 363 350 349 208 207 227 226 353 354 230 364 355 365 
14 24 28 23 363 362 366 367 358 359 353 354 227 226 341 340 364 368 361 369 
14 28 24 29 359 358 367 366 362 363 370 371 372 373 374 375 376 377 378 369 
15 30 16 20 379 380 381 382 83 84 70 71 383 384 88 89 385 386 90 387 
20 16 21 30 89 88 96 97 95 94 384 383 382 381 388 389 386 390 391 99 
30 35 21 20 392 393 394 395 388 389 383 384 396 397 95 94 398 399 391 400 
16 31 21 30 401 402 403 404 97 96 382 381 405 406 388 389 407 408 390 409 
21 31 35 30 404 403 410 411 394 395 388 389 405 406 393 392 408 412 400 413 
21 35 31 36 395 394 411 410 403 404 414 415 416 417 418 419 420 421 422 413 
16 31 17 21 401 402 423 424 127 128 96 97 403 404 132 133 409 425 134 426 
21 17 22 31 133 132 140 141 139 138 404 403 424 423 427 428 425 429 430 143 
31 36 22 21 418 419 431 432 427 428 403 404 415 414 139 138 422 433 430 434 
17 32 22 31 435 436 437 438 141 140 424 423 439 440 427 428 441 442 429 443 
22 32 36 31 438 437 444 445 431 432 427 428 439 440 419 418 442 446 434 447 
22 36 32 37 432 431 445 444 437 438 448 449 450 451 452 453 454 455 456 447 
17 32 18 22 435 436 457 458 171 172 140 141 437 438 176 177 443 459 178 460 
22 18 23 32 177 176 184 185 183 182 438 437 458 457 461 462 459 463 464 187 
32 37 23 22 452 453 465 466 461 462 437 438 449 448 183 182 456 467 464 468 
18 33 23 32 469 470 471 472 185 184 458 457 473 474 461 462 475 476 463 477 
23 33 37 32 472 471 478 479 465 466 461 462 473 474 453 452 476 480 468 481 
23 37 33 38 466 465 479 478 471 472 482 483 484 485 486 487 488 489 490 481 
18 33 19 23 469 470 491 492 215 216 184 185 471 472 220 221 477 493 222 494 
23 19 24 33 221 220 228 229 227 226 472 471 492 491 495 496 493 497 498 231 
33 38 24 23 486 487 499 500 495 496 471 472 483 482 227 226 490 501 498 502 
19 34 24 33 503 504 505 506 229 228 492 491 507 508 495 496 509 510 497 511 
24 34 38 33 506 505 512 513 499 500 495 496 507 508 487 486 510 514 502 515 
24 38 34 39 500 499 513 512 505 506 516 517 518 519 520 521 522 523 524 515 
20 35 21 25 397 396 394 395 95 94 251 252 525 526 264 265 527 528 266 399 
25 21 26 35 265 264 272 273 271 270 526 525 395 394 529 530 528 531 532 275 
35 40 26 25 533 534 535 536 529 530 525 526 537 538 271 270 539 540 532 541 
21 36 26 35 414 415 542 543 273 272 395 394 417 416 529 530 420 544 531 545 
26 36 40 35 543 542 546 547 535 536 529 530 417 416 534 533 544 548 541 549 
26 40 36 41 536 535 547 546 542 543 550 551 552 553 554 555 556 557 558 549 
21 36 22 26 414 415 431 432 139 138 272 273 542 543 298 299 545 559 300 433 
26 22 27 36 299 298 306 307 305 304 543 542 432 431 560 561 559 562 563 309 
36 41 27 26 554 555 564 565 560 561 542 543 551 550 305 304 558 566 563 567 
22 37 27 36 448 449 568 569 307 306 432 431 451 450 560 561 454 570 562 571 
27 37 41 36 569 568 572 573 564 565 560 561 451 450 555 554 570 574 567 575 
27 41 37 42 565 564 573 572 568 569 576 577 578 579 580 581 582 583 584 575 
22 37 23 27 448 449 465 466 183 182 306 307 568 569 332 333 571 585 334 467 
27 23 28 37 333 332 340 341 339 338 569 568 466 465 586 587 585 588 589 343 
37 42 28 27 580 581 590 591 586 587 568 569 577 576 339 338 584 592 589 593 
23 38 28 37 482 483 594 595 341 340 466 465 485 484 586 587 488 596 588 597 
28 38 42 37 595 594 598 599 590 591 586 587 485 484 581 580 596 600 593 601 
28 42 38 43 591 590 599 598 594 595 602 603 604 605 606 607 608 609 610 601 
23 38 24 28 482 483 499 500 227 226 340 341 594 595 366 367 597 611 368 501 
28 24 29 38 367 366 374 375 373 372 595 594 500 499 612 613 611 614 615 377 
38 43 29 28 606 607 616 617 612 613 594 595 603 602 373 372 610 618 615 619 
24 39 29 38 516 517 620 621 375 374 500 499 519 518 612 613 522 622 614 623 
29 39 43 38 621 620 624 625 616 617 612 613 519 518 607 606 622 626 619 627 
29 43 39 44 617 616 625 624 620 621 628 629 630 631 632 633 634 635 636 627 
CELL_TYPES 96
71 71 71 71 71 71 71 71 71 71 71 71 71 71 71 71 71 71 71 71 71 71 71 71 71 71 71 71 71 71 71 71 71 71 71 71 71 71 71 71 71 71 71 71 71 71 71 71 71 71 71 71 71 71 71 71 71 71 71 71 71 71 71 71 71 71 71 71 71 71 71 71 71 71 71 71 71 71 71 71 71 71 71 71 71 71 71 71 71 71 71 71 71 71 71 71 

POINT_DATA 637
SCALARS weights float 1
LOOKUP_TABLE default
2.08333 8.33333 8.33333 8.33333 6.25 8.33333 25 25 25 16.6667 6.25 16.6667 16.6667 16.6667 10.4167 12.5 25 25 25 12.5 25 50 50 50 25 12.5 25 25 25 12.5 10.4167 16.6667 16.6667 16.6667 6.25 16.6667 25 25 25 8.33333 6.25 8.33333 8.33333 8.33333 2.08333 2.08333 2.08333 6.25 6.25 2.08333 2.08333 2.08333 2.08333 6.25 6.25 4.16667 4.16667 2.08333 4.16667 2.08333 2.08333 6.25 6.25 6.25 6.25 8.33333 8.33333 4.16667 4.16667 2.08333 6.25 6.25 12.5 12.5 4.16667 4.16667 2.08333 4.16667 4.16667 4.16667 4.16667 12.5 12.5 6.25 6.25 2.08333 4.16667 4.16667 8.33333 8.33333 4.16667 4.16667 8.33333 8.33333 12.5 12.5 12.5 12.5 4.16667 4.16667 4.16667 6.25 6.25 2.08333 2.08333 4.16667 4.16667 4.16667 2.08333 2.08333 6.25 6.25 6.25 6.25 8.33333 8.33333 4.16667 4.16667 2.08333 12.5 12.5 4.16667 4.16667 4.16667 4.16667 12.5 12.5 6.25 6.25 2.08333 4.16667 4.16667 8.33333 8.33333 4.16667 4.16667 8.33333 8.33333 12.5 12.5 12.5 12.5 4.16667 4.16667 4.16667 6.25 6.25 2.08333 2.08333 4.16667 4.16667 4.16667 2.08333 2.08333 6.25 6.25 6.25 6.25 8.33333 8.33333 4.16667 4.16667 2.08333 12.5 12.5 4.16667 4.16667 4.16667 4.16667 12.5 12.5 6.25 6.25 2.08333 4.16667 4.16667 8.33333 8.33333 4.16667 4.16667 8.33333 8.33333 12.5 12.5 12.5 12.5 4.16667 4.16667 4.16667 6.25 6.25 2.08333 2.08333 4.16667 4.16667 4.16667 2.08333 2.08333 4.16667 4.16667 6.25 6.25 8.33333 8.33333 4.16667 4.16667 2.08333 12.5 12.5 4.16667 4.16667 2.08333 2.08333 6.25 6.25 6.25 6.25 2.08333 4.16667 2.08333 8.33333 8.33333 4.16667 4.16667 4.16667 4.16667 12.5 12.5 6.25 6.25 4.16667 4.16667 2.08333 2.08333 2.08333 6.25 6.25 4.16667 4.16667 2.08333 4.16667 2.08333 6.25 6.25 4.16667 4.16667 8.33333 8.33333 4.16667 4.16667 2.08333 6.25 6.25 6.25 6.25 2.08333 2.08333 2.08333 2.08333 4.16667 12.5 12.5 4.16667 4.16667 8.33333 8.33333 4.16667 4.16667 4.16667 4.16667 6.25 6.25 12.5 12.5 2.08333 4.16667 4.16667 4.16667 4.16667 4.16667 2.08333 6.25 6.25 4.16667 4.16667 8.33333 8.33333 4.16667 4.16667 2.08333 6.25 6.25 2.08333 4.16667 12.5 12.5 4.16667 4.16667 8.33333 8.33333 4.16667 4.16667 4.16667 4.16667 6.25 6.25 12.5 12.5 2.08333 4.16667 4.16667 4.16667 4.16667 4.16667 2.08333 6.25 6.25 4.16667 4.16667 8.33333 8.33333 4.16667 4.16667 2.08333 6.25 6.25 2.08333 4.16667 12.5 12.5 4.16667 4.16667 8.33333 8.33333 4.16667 4.16667 4.16667 4.16667 6.25 6.25 12.5 12.5 2.08333 4.16666 4.16667 4.16667 4.16667 4.16667 2.08333 4.16667 4.16667 4.16667 4.16667 8.33333 8.33333 4.16667 4.16667 2.08333 6.25 6.25 2.08333 4.16667 6.25 6.25 4.16667 2.08333 8.33333 8.33333 4.16667 4.16666 2.08333 2.08333 6.25 6.25 6.25 6.25 2.08333 4.16666 2.08333 2.08333 2.08333 6.25 6.25 6.25 6.25 2.08333 4.16667 2.08333 8.33333 8.33333 4.16667 4.16667 4.16667 4.16667 12.5 12.5 4.16667 4.16667 2.08333 4.16667 4.16667 4.16667 4.16667 12.5 12.5 4.16667 4.16667 2.08333 4.16667 4.16667 4.16667 4.16667 2.08333 4.16667 8.33333 8.33333 6.25 6.25 6.25 6.25 4.16667 2.08333 4.16667 6.25 6.25 4.16667 2.08333 8.33333 8.33333 4.16667 4.16667 12.5 12.5 4.16667 4.16667 4.16667 4.16667 12.5 12.5 4.16667 4.16667 2.08333 4.16667 4.16667 4.16667 4.16667 2.08333 4.16667 8.33333 8.33333 6.25 6.25 6.25 6.25 4.16667 2.08333 4.16667 6.25 6.25 4.16667 2.08333 8.33333 8.33333 4.16667 4.16667 12.5 12.5 4.16667 4.16667 4.16667 4.16667 12.5 12.5 4.16667 4.16667 2.08333 4.16667 4.16667 4.16667 4.16667 2.08333 4.16667 8.33333 8.33333 6.25 6.25 6.25 6.25 4.16667 2.08333 4.16667 6.25 6.25 4.16667 2.08333 8.33333 8.33333 4.16667 4.16667 12.5 12.5 4.16667 4.16667 2.08333 2.08333 6.25 6.25 4.16667 4.16667 2.08333 4.16667 2.08333 4.16667 4.16667 2.08333 4.16667 4.16667 4.16667 6.25 6.25 2.08333 2.08333 4.16667 2.08333 2.08333 6.25 6.25 2.08333 4.16667 8.33333 8.33333 4.16667 4.16667 4.16667 4.16667 6.25 6.25 2.08333 2.08333 2.08333 2.08333 4.16667 12.5 12.5 4.16667 4.16667 4.16667 4.16667 2.08333 4.16667 4.16667 4.16667 2.08333 2.08333 6.25 6.25 2.08333 2.08333 4.16667 4.16667 8.33333 8.33333 4.16667 4.16667 6.25 6.25 2.08333 4.16667 12.5 12.5 4.16667 4.16667 4.16667 4.16667 2.08333 4.16667 4.16667 4.16667 2.08333 2.08333 6.25 6.25 2.08333 2.08333 4.16667 4.16667 8.33333 8.33333 4.16667 4.16667 6.25 6.25 2.08333 4.16667 12.5 12.5 4.16667 4.16667 4.16667 4.16667 2.08333 4.16667 4.16666 4.16666 2.08333 2.08333 6.25 6.25 2.08333 2.08333 4.16666 4.16667 8.33333 8.33333 4.16667 4.16667 6.25 6.25 2.08333 4.16667 6.25 6.25 4.16667 2.08333 4.16666 4.16666 2.08333 4.16666 2.08333 2.08333 2.08333 2.08333 2.08333 2.08333 2.08333 2.08333 2.08333 
VECTORS u float