# vtk DataFile Version 5.1
vtk output
ASCII

DATASET UNSTRUCTURED_GRID
POINTS 2252 float
-0.555548 -0.516525 0
-0.555547 0.48348 0
0.444457 0.483479 0
0.444457 -0.516525 0
-0.528673 -0.53866 4
0.471332 -0.53866 4
0.471332 0.461344 4
-0.528672 0.461344 4
-0.555547 -0.0165225 0
-0.055545 0.483479 0
0.444457 -0.0165229 0
-0.0555453 -0.516525 0
-0.0286703 -0.53866 4
0.471332 -0.0386579 4
-0.0286704 0.461344 4
-0.528672 -0.0386577 4
0.433569 0.445801 2.00229
0.431694 -0.520792 1.99043
-0.531161 -0.517632 2.00205
-0.530855 0.446502 2.00483
0.221331 -0.53866 4
-0.528672 -0.288659 4
-0.519023 0.443756 3.00439
-0.541574 -0.504178 0.996367
-0.535129 0.455246 1.00868
0.431531 0.453205 1.00684
-0.0560231 -0.712301 1.49253
-0.741203 -0.00723689 0.49872
-0.733921 -0.0255704 1.50512
-0.0474546 0.65975 0.512278
0.627253 -0.0247914 0.502084
-0.679589 0.26506 0.257155
-0.278671 -0.53866 4
-0.528672 0.211343 4
0.42557 -0.510689 0.988298
0.447818 0.443736 2.99363
0.450798 -0.519674 2.99464
-0.513015 -0.527817 3.00429
-0.713134 -0.046924 3.50252
-0.041942 0.641593 2.50032
-0.0507855 0.653244 1.50946
-0.320266 -0.65575 1.24527
0.210513 -0.664987 1.74048
-0.686012 -0.280624 0.745529
-0.723252 -0.0398641 2.51094
-0.0433371 -0.718902 2.49865
0.651372 -0.0279587 3.49331
0.642382 -0.03819 2.49054
-0.0400626 0.642499 3.49957
0.626901 -0.0315271 1.49603
-0.0610948 -0.699629 0.500484
-0.0195731 -0.717737 3.49999
-0.29689 0.590771 2.75066
-0.651298 -0.321426 3.74443
-0.662606 0.222315 3.25313
0.214958 0.594121 2.24835
0.582554 0.227784 1.74573
0.225161 0.592514 3.24465
-0.307832 0.584927 3.72216
0.584481 -0.300351 2.24243
0.594308 0.221111 2.74556
0.576127 -0.294081 1.24531
-0.338693 -0.643441 0.247819
0.197464 -0.653985 0.741261
0.305007 0.407438 0.283467
0.358407 0.245473 1.37279
-0.0555452 -0.0165227 0
-0.5134 0.120181 2.75933
0.358509 -0.299846 0.625538
-0.153671 -0.163658 4
-0.555548 -0.266524 0
-0.305546 0.233479 0
0.194456 0.233478 0
0.161595 -0.493055 3.25119
0.453249 0.0602563 3.11805
-0.543111 0.0775076 0.876113
-0.502237 -0.228746 2.25735
0.384916 0.335479 3.16368
-0.546849 -0.0155713 3.10749
-0.158449 -0.51104 0.869327
-0.305546 0.48348 0
-0.668963 -0.30108 2.75513
-0.31706 0.60801 0.753971
0.194456 -0.266524 0
0.221331 0.211343 4
0.362043 -0.30932 1.61817
-0.439438 0.324044 0.403226
-0.244137 0.432848 1.25554
-0.411655 -0.382904 3.60045
-0.590376 -0.203302 0.916123
-0.146686 -0.528119 1.87436
0.369664 -0.380789 0.283746
0.49854 0.161848 2.91197
0.470984 -0.179883 0.552411
-0.305546 -0.516525 0
-0.340411 -0.454257 3.41334
0.520075 0.0276121 3.78025
0.471332 -0.288659 4
-0.51831 0.11822 3.6528
0.379819 -0.338036 0.831715
0.00745364 0.528606 0.222637
-0.402047 -0.403776 0.392955
0.493612 -0.0782729 0.223455
-0.278671 0.461344 4
-0.50271 -0.302208 3.10755
-0.428085 -0.374255 2.59996
-0.308799 0.441581 2.59103
-0.132107 0.445537 3.12447
-0.482763 0.255343 2.84824
-0.677615 0.221569 2.25547
0.128082 0.449106 3.65085
-0.0935415 0.489012 0.908454
-0.555547 0.233479 0
0.349647 -0.397633 2.71278
0.201217 0.480391 3.41606
-0.48481 0.221826 1.74289
0.509268 0.00470777 1.33131
0.598282 0.238652 3.72928
0.602565 -0.295516 3.24299
0.528889 -0.060432 2.65791
0.250668 -0.657685 3.72903
0.183807 -0.534804 0.581832
-0.141934 -0.561748 1.65834
-0.683489 0.23446 1.25735
-0.476511 -0.325618 1.24342
-0.144383 0.450415 2.128
0.0963303 -0.288659 4
-0.307596 -0.666652 2.25066
-0.581174 -0.0929838 3.33524
-0.0430487 -0.587352 0.334087
0.431719 0.139189 1.05956
0.135538 -0.568146 1.91563
-0.50427 -0.289834 0.534589
-0.410283 0.401216 1.17039
-0.596206 -0.00601076 2.67521
0.124803 -0.560837 0.908957
-0.32657 0.426562 0.552336
0.463673 -0.255703 3.49038
0.257973 -0.453398 2.25053
0.371706 0.23682 2.36891
-0.596839 -0.088297 2.34217
0.206837 0.60218 1.25551
0.204358 0.469194 2.41203
-0.0350138 0.492012 1.79171
0.477273 0.0817772 1.90948
-0.543332 0.157951 1.99096
-0.431276 -0.443241 0.83114
-0.126371 0.488107 3.33733
-0.4496 0.371497 0.786515
-0.360656 0.33886 3.39159
0.381906 -0.409637 3.24134
-0.278671 0.0863428 4
0.224186 -0.667182 2.74765
-0.284022 -0.672792 3.25017
-0.0692072 0.53049 2.33511
0.152279 0.462887 0.95724
0.362325 0.266801 3.38721
0.238526 -0.426182 0.373632
0.578739 0.22908 0.754308
0.415551 0.255897 3.58276
0.454539 -0.0519415 1.10243
0.466909 0.205886 1.58327
0.510143 -0.0508057 3.23346
-0.314066 0.596877 1.75978
-0.389227 -0.469246 2.83952
-0.549732 0.12299 0.672718
0.275021 0.401491 2.8365
-0.406926 0.379981 3.17353
-0.283156 0.463126 3.57989
-0.377655 0.333083 2.44098
-0.680672 -0.292671 1.75263
-0.0173195 0.531061 2.6652
-0.122051 -0.575863 0.646537
-0.544411 -0.103198 2.00581
0.371247 0.352228 2.1643
0.328953 -0.445341 1.16109
0.023647 -0.594027 3.33226
0.388985 -0.348152 1.83066
-0.226779 -0.573364 3.07889
0.0321691 -0.563827 1.33275
-0.0982852 0.526145 1.34145
0.214464 0.386386 2.66008
-0.0907953 -0.550061 3.77288
-0.263879 -0.224857 0
0.359211 0.293064 0.583825
0.104187 -0.541802 2.36882
-0.468322 0.311339 2.31098
-0.297889 -0.528146 2.41949
0.120633 0.488029 1.53686
-0.113979 -0.542473 1.08473
-0.545107 0.215022 1.45111
-0.580345 0.0596616 1.11299
0.0754968 -0.0178245 4
0.474714 0.148705 2.47403
-0.0076721 -0.547843 2.91377
-0.00348589 0.531889 0.671079
-0.562851 -0.0791198 0.226031
0.460666 -0.285932 2.96398
0.143051 0.493362 2.07149
0.483755 0.0293666 0.821722
-0.493603 -0.303828 1.52541
-0.378724 0.345792 1.50356
0.356554 -0.342131 2.49426
-0.181213 -0.540134 2.65581
0.240981 -0.437787 1.3139
-0.589633 -0.0113967 1.73622
0.190993 -0.541175 1.57723
-0.308138 0.45254 2.04822
0.509662 -0.0754617 1.65186
-0.287128 0.484143 1.59423
-0.461275 -0.425318 2.17371
-0.0512112 0.205537 4
0.221331 0.461344 4
0.48709 -0.129933 2.12768
0.135527 0.490404 3.08125
-0.237083 0.495127 2.92116
0.317454 -0.441795 3.65953
0.363185 0.248978 0.365366
0.183798 0.422322 1.83777
-0.421666 -0.453283 1.83611
-0.0976466 -0.54874 2.08931
0.435642 0.0950907 2.12742
-0.0975007 0.0451892 1.94186
0.178107 0.00721353 0.639303
0.160869 -0.03556 3.62002
-0.0307716 -0.0559242 2.71483
-0.103117 0.562073 0.405714
-0.461509 -0.408613 3.74605
-0.0310554 0.118475 1.36626
-0.57626 -0.289224 0.645266
0.512259 0.0656745 0.426641
0.11536 -0.273788 2.57461
-0.0381841 -0.283885 0
0.202261 0.180539 3.54997
-0.0856583 -0.106288 3.16857
0.45855 -0.0945487 2.87801
0.490515 -0.256963 2.42459
0.14765 -0.597656 3.8326
0.103588 -0.248445 0.719379
0.0199465 0.281949 0.441856
0.214152 0.162628 0.921722
-0.16368 -0.0562482 2.3352
-0.227722 0.13359 0.973067
0.0448333 -0.184158 1.09699
-0.151378 0.518364 3.80596
0.201234 -0.575566 2.90974
-0.0841346 0.0396102 3.78161
-0.179508 0.318715 0.694184
0.00240791 0.504703 1.15356
0.28709 -0.179205 1.28868
-0.284713 0.0043108 0
-0.140131 -0.303494 2.74373
-0.243791 -0.0811801 1.65225
0.178672 0.415691 3.77239
-0.585852 -0.21187 3.5209
0.10951 -0.0770896 0.294769
-0.247109 0.158228 3.01531
-0.613642 0.11076 0.550871
0.263343 0.00910085 2.74937
-0.218117 0.175241 2.73801
-0.256252 -0.140305 2.90329
-0.332469 0.0568803 2.59546
-0.62591 -0.0276623 1.32173
0.204162 -0.0209655 3.25238
0.160975 -0.00260345 2.4395
-0.256903 -0.494178 3.81415
0.275729 0.0157406 4
0.204302 0.0678632 1.73641
0.0823255 -0.422292 2.72637
-0.224871 -0.330396 3.13577
-0.469076 0.211595 3.75661
-0.00884216 0.0846794 1.09265
-0.428066 -0.451768 0.250828
0.00203204 -0.219872 1.40961
-0.557347 0.187559 3.42008
-0.0187416 0.254002 2.44281
-0.0555451 0.233478 0
0.0804647 -0.352598 1.74827
-0.288392 -0.197456 1.03096
0.0965157 0.278898 3.25036
0.0909577 -0.349578 3.74268
-0.315375 0.015703 1.29503
0.0502481 -0.284925 3.40023
-0.035718 0.3136 3.53261
-0.287469 -0.471568 1.67348
0.262527 0.354982 1.60621
-0.0905233 -0.239658 1.89994
-0.167566 -0.301554 2.49164
-0.489299 0.354096 0.256329
-0.322161 -0.0424101 3.28519
-0.440145 0.397049 1.80533
-0.0670826 -0.0651555 0.848418
-0.153406 0.213814 1.68419
0.452163 -0.190413 3.77403
-0.0559818 0.0294685 3.4329
0.108125 0.180266 2.11874
-0.00549862 0.461886 2.90618
0.226671 -0.0330536 1.02129
-0.0805505 -0.537598 3.0234
0.299247 0.401449 1.29153
0.361873 -0.0581061 3.4225
-0.53977 -0.0333641 3.8459
0.194456 -0.0165228 0
-0.513053 -0.241754 0.189089
-0.317227 0.00531577 1.84397
-0.16585 -0.372586 2.24731
-0.130613 -0.0149051 0.518977
-0.270484 -0.555799 1.43825
0.235493 0.080858 3.01871
-0.0339517 -0.534277 0.17775
-0.405422 -0.0719269 0.609566
-0.0621851 -0.278011 0.22841
0.0151644 0.170102 0.81999
-0.240272 -0.195624 3.72863
-0.12665 -0.286325 0.464264
-0.486579 -0.0641885 1.55701
-0.172876 -0.236544 0.680899
-0.573994 -0.231609 2.90523
0.0105278 0.191663 2.82159
-0.31597 0.144884 2.13478
-0.158343 0.219491 2.28097
-0.572005 -0.269639 1.94765
-0.356119 -0.122113 2.48973
0.155876 -0.0807723 1.91741
-0.0637601 0.465487 1.95875
0.123404 -0.258427 3.00102
-0.164209 0.197905 0.292946
-0.343418 -0.0257376 0.35638
-0.39815 -0.39146 1.44725
-0.333292 -0.252633 2.01904
-0.296722 0.0543251 0.773784
-0.117971 -0.148899 2.12336
0.200687 -0.307388 0.961898
0.259816 -0.143546 1.52131
0.00280508 0.245538 1.81326
0.00263125 -0.00534012 1.58233
0.0983402 0.241451 1.51473
-0.0901738 -0.603497 3.61146
0.118713 -0.270673 2.3374
0.3713 -0.448063 2.15529
-0.195836 -0.387554 1.26417
0.226656 -0.0478359 2.17689
-0.331907 0.0264936 3.49987
0.270631 -0.302691 2.01307
0.115617 -0.219746 0.457937
-0.172262 -0.284102 1.56365
-0.249129 0.145526 3.64134
0.101707 0.284346 1.20652
-0.17231 0.181292 3.25993
-0.0500063 0.286298 3.78493
-0.186599 -0.182044 3.50412
-0.104143 0.467178 1.05526
0.341734 0.401647 1.87583
-0.132031 -0.0338135 0.235863
0.0854947 0.275434 3.01519
0.00836513 -0.00426411 2.95988
0.0420979 0.0158698 3.69998
0.109714 -0.18903 3.68269
0.00875524 -0.152254 3.76246
-0.108689 -0.0824607 3.64327
-0.00633765 -0.12442 3.56406
-0.0624126 -0.2881 3.62371
-0.119932 -0.452813 2.17234
-0.224818 -0.408006 2.05606
-0.256842 -0.321599 2.13267
-0.152716 -0.256323 2.18652
-0.102627 -0.349421 2.11905
-0.221274 -0.207866 2.07014
-0.12344 -0.150419 0.491828
[...]
POINT_DATA 2252
SCALARS scalars float 1
LOOKUP_TABLE default
1.46544 1.44271 1.36354 1.38756 1.46184 1.42208 1.36663 1.40796 1.05568 0.985047 0.944602 1.01804 1.03906 0.972101 0.961772 1.0294 0.0857662 0.0720386 0.0358622 0.0619464 1.1406 1.16117 1.02058 1.04159 0.955931 0.932731 0.595222 1.33544 0.528988 1.24498 1.24343 1.40599 1.16546 1.12739 1.01349 0.9452 0.951017 1.02791 1.33072 0.560134 0.474728 0.834935 0.333338 1.20614 0.584307 0.50642 1.2444 0.483354 1.26371 0.54648 1.32436 1.30908 0.802044 1.4143 1.19531 0.300184 0.28449 1.12657 1.35294 0.21692 0.727265 0.797736 1.41805 1.19302 1.03989 0.439596 0.0579505 0.613855 0.876517 0.401224 1.17515 0.736467 0.656729 0.825114 0.720674 0.792771 0.228875 0.844838 0.840509 0.833516 1.12954 0.818721 1.12302 0.681423 0.659538 0.338759 0.999217 0.502846 1.0335 0.906895 0.149358 1.07746 0.6971 0.982743 1.15843 0.973481 1.05761 1.11069 1.01871 0.857554 1.06069 1.04576 1.04677 1.09712 0.860963 0.505029 0.547362 0.773345 0.717995 0.330304 0.949463 0.737115 1.161 0.532775 0.984637 0.160207 0.553701 1.32373 1.12139 0.504503 1.37992 1.0395 0.352122 0.757069 0.634265 0.15269 0.582358 0.254544 1.02 1.13599 0.669923 0.149192 1.01306 0.658932 0.606508 0.908276 0.940175 0.965369 0.14424 0.269407 0.353412 0.714205 0.360854 0.143299 0.128183 0.0660872 0.949077 0.933574 0.894204 0.906475 0.896846 0.56935 0.743237 1.19251 0.351761 0.711985 0.838955 0.962947 1.11225 0.975291 0.646805 0.349479 0.865144 0.209886 0.728591 0.924604 0.646265 0.915394 1.07549 0.390936 0.275017 0.575207 1.03916 0.0569542 0.151461 0.748844 0.994191 0.187946 0.89841 0.592246 0.488627 0.483762 1.05087 0.640811 0.872912 0.280726 0.306801 0.346689 0.359368 0.738615 0.453877 0.685781 0.179689 0.382156 0.666563 0.927362 1.06411 0.729978 0.126566 0.846006 0.399817 0.33713 0.324793 0.507435 0.569399 0.230028 0.412179 0.0955886 0.341173 0.295681 0.156107 0.455739 1.07067 0.095949 0.831259 0.768253 1.032 0.898388 0.103977 0.167462 0.067626 0.090055 0.0502787 0.374565 0.326089 0.0473256 1.08264 1.1741 0.0832609 1.0774 1.03762 0.205053 0.551639 0.555161 0.18142 0.585233 0.314793 1.19037 0.493151 0.539954 0.441552 0.113565 0.322757 0.288933 1.10673 0.74766 0.187797 0.589941 0.593708 0.417999 0.514494 0.328097 0.121292 0.941116 1.14622 0.309476 0.450614 1.09194 0.289095 0.35161 0.36496 0.334706 0.581717 0.348352 0.100212 1.05165 0.584352 0.127789 0.411213 0.581536 1.01028 0.0972883 1.18307 0.238081 1.06374 0.226944 0.486659 0.195076 0.450272 0.538885 0.674047 0.281174 0.47159 0.635108 0.298164 0.268805 0.0887152 0.229042 1.15093 0.539524 0.113938 0.127904 0.0732113 0.966693 0.135747 0.0834725 0.653065 0.38059 0.74167 0.562115 0.664165 1.05184 0.444763 1.06478 0.0550896 0.131974 0.18233 0.558379 0.378395 1.04765 0.674388 0.546514 0.272128 0.56172 0.568754 0.30025 0.483261 0.785376 0.285948 0.12588 0.176191 0.0896481 0.286873 0.0819004 0.0394935 0.359562 0.471509 0.605339 0.466693 0.0629057 0.436908 0.0586637 0.582797 0.276495 0.0539178 0.0650244 0.188595 1.12013 0.0995114 0.0811378 0.47918 0.0500488 0.608587 0.0483294 0.501324 0.239624 0.566713 0.352429 0.456525 0.613691 0.442798 0.623826 0.109765 0.210387 0.461968 0.0466567 0.127352 0.396899 0.260483 0.223694 0.187692 0.517754 0.0979636 0.0569219 0.0873849 0.0783236 0.0525082 0.0636967 0.330289 0.516168 0.388181 0.188657 0.382189 0.403567 0.82821 0.637145 0.742077 0.574768 0.5032 0.385323 0.736257 0.745983 0.9364 0.781611 0.562962 0.750309 0.745076 0.522514 0.813533 0.742022 0.432721 0.507106 0.768956 0.646795 0.634012 0.604125 0.575201 0.476443 0.975698 1.09784 0.925979 0.798241 1.04709 0.928939 1.00346 0.717019 0.801053 0.82896 0.748482 0.566508 0.534182 0.368208 0.582842 0.53256 0.33928 0.446118 0.200784 0.228545 0.106315 0.144277 0.261721 0.162266 0.177988 0.120386 0.122824 1.08945 0.920121 1.27127 1.28067 0.940156 1.13863 0.893092 0.731494 0.997066 0.868336 0.743654 0.8387 0.939498 1.08106 1.06217 0.879622 1.11444 1.03433 0.877808 1.21142 1.20577 0.854818 1.00336 0.484412 0.435955 0.362364 0.42943 0.505999 0.376829 1.14903 1.20417 0.990949 0.815252 0.981905 0.833397 0.179395 0.140425 0.086148 0.0762453 0.139735 0.067793 0.814569 0.868566 0.655005 0.60059 0.806271 0.674581 1.32549 1.18261 1.13326 1.1533 1.20034 0.991212 0.735137 0.530985 0.515681 0.510187 0.583547 0.323755 0.36007 0.286016 0.383002 0.500965 0.418586 0.456516 0.631177 0.508986 0.707864 0.768817 0.611986 0.642668 0.142833 0.112806 0.14824 0.071426 0.286202 0.092226 0.69657 0.613129 0.588235 0.524979 0.519551 0.396962 0.264727 0.334608 0.156115 0.197476 0.155741 0.104997 0.178365 0.219419 0.291439 0.203833 0.347758 0.0951763 0.0559669 0.0359433 0.128123 0.153393 0.142 0.237433 0.105999 0.188443 0.248789 0.166151 0.121344 0.699804 0.634842 0.490246 0.536104 0.692308 0.587001 1.33536 1.15006 1.14636 0.846755 0.697701 0.668972 0.650681 0.737487 0.509051 0.609831 0.535438 0.671737 0.530048 0.41262 0.519452 1.25119 1.23971 1.40599 1.30316 1.1121 1.28093 0.379088 0.365513 0.271257 0.272015 0.364127 0.305431 1.00734 1.12747 0.816016 0.853324 1.1837 1.03322 0.256253 0.36021 0.462024 0.319347 0.2107 0.418182 1.11654 1.03451 0.937584 0.995343 1.10746 0.977364 0.248363 0.182626 0.118291 0.0894133 0.156709 0.0494868 0.195156 0.29613 0.238151 0.133614 0.113662 0.278727 0.338581 0.264315 0.173404 0.233064 0.39809 0.18211 0.0468794 0.0591069 0.0239109 0.114752 0.115466 0.0907059 0.928027 0.765061 0.823662 0.844699 0.829783 0.703804 0.147558 0.106924 0.218807 0.165098 0.064748 0.11961 0.824951 0.896725 0.880688 0.625524 0.740343 0.672911 0.313685 0.553034 0.35878 0.302009 0.449367 0.522693 0.397879 0.326381 0.446689 0.578168 0.499376 0.4937 0.279495 0.368258 0.430931 0.295233 0.248023 0.356432 0.118495 0.0567557 0.0638691 0.126487 0.109579 0.0614022 1.13246 1.00318 0.991888 1.133 1.04464 0.967953 0.995239 1.0705 0.892577 0.670801 0.745909 0.672209 0.974287 0.776158 0.957541 0.768172 0.618838 0.631737 1.08112 0.864135 0.794307 0.768646 0.863735 0.571764 0.283059 0.361911 0.101891 0.167599 0.181146 0.852782 0.491515 0.688011 0.817201 0.589075 0.448667 0.156704 0.172506 0.15144 0.306572 0.309198 0.277036 0.193209 0.306126 1.11084 0.933643 1.01265 0.951283 0.835596 1.1892 1.07126 1.01612 0.915395 0.720923 0.500316 0.897153 0.78132 0.843285 0.744394 0.622944 0.790805 1.02396 0.574369 0.784815 0.803422 0.494258 0.450792 0.257558 0.142606 0.0588338 0.104245 1.37924 1.14865 1.18633 1.27413 1.23196 1.0141 0.0423649 0.0490588 0.109653 0.0441908 0.101706 0.0171362 0.370645 0.185538 0.276054 0.431223 0.36866 0.217661 0.664752 0.704754 0.489891 0.437107 0.688823 0.411754 0.562899 0.376825 0.380311 0.617637 0.510838 0.561667 0.752187 0.89914 0.375208 0.751852 0.156769 0.186759 0.0883736 0.0882316 0.191272 0.132849 0.111797 0.178154 0.647386 0.587031 0.482643 0.560516 0.664418 0.489438 1.06101 0.964597 1.01008 0.732654 0.844596 0.114688 0.0572637 0.041002 0.00816228 0.0357463 0.0264044 0.174455 0.149896 0.189312 0.260184 0.240469 0.380943 0.189043 0.313973 0.23526 1.02396 0.826273 0.67003 0.851252 0.25221 0.127868 0.175933 0.310305 0.216543 0.157444 0.538406 0.436456 0.377252 0.48678 0.358632 0.147222 0.127819 0.106772 0.166848 0.217493 0.151948 0.334558 0.235302 0.0346246 0.404299 0.624059 0.0879468 0.11998 0.183823 0.138693 0.0288849 0.10277 0.611127 0.523786 0.562565 1.00373 0.978577 0.953001 0.769226 0.860173 0.0687249 0.19318 0.0669368 0.313196 0.424067 0.235254 0.0913726 0.150247 0.0884192 1.19143 1.04091 1.07861 1.09497 1.03827 1.18267 1.13676 0.95935 1.08234 0.562032 0.61935 0.380635 0.60042 0.444186 0.341578 0.343139 0.32273 0.223294 0.254088 0.238881 0.825332 0.584327 0.610833 0.5748 0.215356 0.175967 0.266761 0.182986 0.194694 0.794575 1.02985 1.0406 0.0747545 0.0721465 0.141815 0.0495913 0.0338906 0.0497712 0.626026 0.480771 0.484543 0.546955 0.335448 0.140888 0.0965423 0.105978 0.145878 0.0958708 0.888533 0.912546 1.12539 1.101 0.820579 1.03426 0.891569 0.842688 0.950052 0.768601 0.639737 0.735707 0.119869 0.215114 0.028445 0.209108 0.823515 0.772323 0.715167 0.529669 0.232482 0.324958 0.250813 0.283723 0.301891 0.193754 0.173632 0.214747 0.27084 0.776784 0.70577 1.09985 0.866561 0.479702 0.795816 0.113902 0.0928514 0.197351 0.696149 0.640224 0.525617 0.493827 0.447191 0.538555 0.48078 0.37986 0.298122 0.197807 0.252634 0.283782 0.112889 0.0609154 0.0912553 0.031801 0.0474647 0.551148 0.501492 0.333226 0.346688 0.584623 0.29696 0.398242 0.328902 1.15971 1.08458 0.164658 0.263266 0.187534 0.105269 0.160324 0.205716 0.0550086 0.00785497 0.0553213 0.0843256 0.0409961 0.198032 0.20242 0.248527 1.07647 0.743844 0.975641 0.615279 0.747949 0.59149 0.450366 0.579659 0.567782 0.557928 0.431152 0.430845 0.478977 0.510585 0.407432 0.453524 0.414805 0.372554 0.288538 0.371142 0.284706 0.204175 0.258104 0.174551 0.074614 0.79435 0.766439 0.995028 1.02998 1.00012 0.337289 0.382375 0.362818 0.264755 0.288693 1.31519 1.20181 1.15784 1.19058 1.22223 1.04967 0.116452 0.129171 0.838568 0.755632 0.507744 0.731137 0.489213 0.40098 0.278649 0.242988 0.0906121 0.379648 0.519223 0.304327 0.297364 0.486519 0.698335 0.840807 0.619607 0.593963 0.657264 0.599974 0.358371 1.06145 0.835181 1.01332 0.81033 0.775889 0.758527 0.881752 0.557383 0.603351 0.502049 0.468075 0.445438 0.510661 0.105701 0.127857 0.405518 0.710851 0.776133 0.566466 0.446637 0.796089 0.0939712 0.237315 1.10944 0.853422 0.783628 0.781903 0.512753 0.349678 0.289093 1.07502 0.832972 1.00493 0.978453 0.74318 0.691103 0.494619 0.409156 1.13812 1.15516 1.01553 1.01406 1.20982 1.01129 0.920872 1.07015 1.0097 0.713821 0.753093 0.886339 0.624982 0.624294 0.383942 0.406528 0.341953 0.248404 0.195123 0.164697 0.14332 0.169001 0.115378 0.116947 0.366013 0.489672 0.349302 0.128674 0.102684 1.28486 1.28993 1.20046 0.310724 0.394356 0.231757 0.344813 0.565476 0.44078 1.28537 1.10962 1.05016 0.848208 0.783444 1.02385 1.05756 0.788353 1.28661 1.12497 1.28453 1.20515 1.10206 1.0353 0.178323 0.594956 0.356282 0.642181 0.469935 0.169681 0.232756 0.211399 0.114176 0.167559 1.11733 1.25989 0.912557 1.08271 0.696063 0.51748 0.509634 0.397432 0.773563 0.828018 0.74897 0.283873 0.33134 0.224418 0.696701 0.74021 0.497743 0.989368 0.776596 0.0437752 0.576956 0.309579 0.286884 0.315812 0.179214 0.194055 0.188564 0.197881 0.0760269 0.050063 0.0522353 0.0850184 0.0629893 0.0585328 0.0790764 1.01615 0.649986 0.958198 1.1594 1.01489 0.903499 0.965356 0.588898 0.419613 0.481873 0.453635 0.426062 0.31346 0.475295 0.972408 0.665102 0.696522 1.07925 0.758818 1.00148 0.784725 0.792931 1.04236 1.06013 0.788648 0.0600524 0.0637706 0.0629418 0.0592233 0.827795 0.554953 0.717219 0.87969 0.645103 0.791226 0.684552 0.465765 1.014 0.785208 0.835951 0.946286 0.541744 0.396606 0.437416 0.52099 0.257362 0.172661 0.328681 1.34453 1.01308 1.17514 1.20095 0.155521 1.10713 0.92883 1.16055 1.07942 0.627507 0.755239 0.802447 0.0790985 0.092348 0.077605 0.0607535 0.0629741 1.15143 0.947396 1.0872 0.957879 0.848034 0.0904343 1.03899 0.998878 0.936964 0.908977 0.774816 0.861353 1.09638 0.815497 0.887197 1.16809 0.821126 0.793483 0.928167 1.07532 0.751654 0.994596 0.189314 0.191486 0.325915 0.322986 1.18203 1.0531 0.206955 0.324912 0.625422 0.59208 0.637078 0.468714 0.441681 0.300718 0.0682618 0.260721 0.123557 0.301956 0.12646 0.178588 0.192412 0.438388 0.699354 0.808299 0.727401 0.934965 1.11724 0.95688 0.835735 1.03333 1.03211 0.65822 0.760545 0.724004 0.381482 0.673847 1.03776 0.223824 0.22296 0.694653 0.729518 0.946488 0.664398 0.556702 0.680914 0.734465 0.341361 0.933735 1.03519 0.760839 0.713878 0.623045 0.513072 0.439434 0.839778 0.495317 1.29621 1.10829 1.29813 1.30206 1.1715 1.2278 1.11288 1.06779 1.04702 0.265315 0.329589 0.217432 0.21523 0.183929 0.305175 0.173208 0.415539 0.967746 1.00336 0.821406 0.876174 0.8142 0.593508 0.640926 0.466421 0.948123 0.567577 0.589905 0.305314 0.603551 0.489706 0.505565 0.460912 0.464461 0.814629 0.769215 0.730754 0.879271 0.74048 1.1142 0.759744 0.430191 0.539964 0.325992 0.300457 0.523558 0.356528 0.705003 0.50595 0.460616 0.064213 0.0697045 0.66343 0.426448 0.383808 0.417748 0.296473 0.410055 0.426324 1.02107 1.11179 0.728171 0.733375 0.531148 0.478169 0.706039 0.703041 0.489002 0.338286 0.322941 0.316824 0.220631 0.211856 0.19933 0.673074 0.68605 0.0961761 0.148273 0.0861971 0.133517 0.996757 0.257784 0.347482 0.231659 0.298385 0.962492 1.1395 0.960179 0.801033 0.876332 0.329921 0.14923 0.518243 0.205473 0.558439 0.744981 0.986494 0.753102 0.98794 0.820156 0.559449 0.429171 0.713247 0.399818 0.381652 0.355982 0.234453 0.173144 0.250005 0.138911 0.279555 1.06198 0.79452 1.04224 0.483375 0.537518 0.541732 0.422957 0.458879 0.845336 0.806761 0.812494 0.248563 0.305978 0.342328 0.272801 0.780556 0.809814 0.627692 0.777836 0.553477 0.122248 0.127531 0.109074 0.0750594 0.233835 0.227887 0.135196 0.574208 1.00711 1.04596 0.532646 0.45537 0.65844 0.509588 0.728828 0.696413 0.518555 0.182505 0.245648 0.26434 0.100895 0.082671 0.140809 0.892352 0.764088 0.923398 0.911014 0.958659 0.288784 0.246132 0.344655 0.734448 1.26949 1.17761 1.16914 0.977501 0.903354 0.802507 1.04008 0.732788 0.490895 0.823514 0.685069 0.579517 0.352657 0.417301 0.301965 0.275728 0.397519 0.321903 0.65635 0.533796 0.685049 0.791658 0.626214 0.673632 0.592108 0.706548 0.527641 0.60277 0.0580825 0.0641502 0.0869144 0.113656 0.827706 0.913466 0.855998 0.616511 0.673089 0.673517 0.705099 0.462424 1.09223 1.22919 1.04855 0.5951 0.26323 0.30961 0.284898 0.186332 0.196475 0.223991 0.135532 0.15615 0.207131 0.505265 0.350728 0.403495 0.532392 0.468146 0.345807 0.762212 0.880428 0.758682 0.545382 0.700211 1.04328 0.896741 0.977028 0.963473 0.796138 0.460721 0.455195 0.438949 0.628131 0.545334 0.424984 0.195876 0.309819 0.500749 0.33237 0.519644 0.551665 0.535928 0.311727 0.454544 0.54455 0.447178 0.351227 0.563785 0.899521 0.719932 0.746481 0.810727 0.774209 1.24149 1.26744 1.1286 1.00337 0.680582 0.603946 0.54412 0.700496 1.43986 0.107008 0.0505727 0.10221 0.0435419 1.26457 1.06879 0.290315 0.180989 0.147693 0.853136 0.734665 0.484977 0.604279 0.928485 0.860232 0.900887 0.826468 0.685139 0.567341 0.488337 0.407077 0.183876 1.20251 1.05468 1.1166 1.07465 1.00929 0.38305 0.374685 0.420723 0.728954 1.07471 1.14972 1.00506 1.03694 0.461263 0.448609 0.126221 0.0810459 0.156702 0.0639001 0.373797 0.287452 0.470013 0.449416 0.298385 0.288244 0.887371 0.846974 0.0795657 0.0632415 0.0407997 0.0123153 0.919678 0.548173 0.432753 0.459675 0.442601 0.466167 0.455123 0.500664 0.246685 0.309285 0.497023 0.707394 0.698214 0.362251 0.345531 0.473449 0.507202 0.465752 0.413389 0.34667 0.609747 0.501052 0.737901 0.798412 0.776969 0.478187 0.552732 0.0322975 0.140337 0.152635 1.30451 1.29701 1.11196 1.17855 1.30712 0.275831 1.28977 0.653615 0.507608 0.597241 0.65384 0.321955 0.49071 0.398544 0.575449 0.453192 0.473454 1.06841 0.340998 0.368766 0.118724 0.349093 0.412832 0.271404 0.158704 0.253779 0.698224 0.462248 0.261929 0.37084 0.316542 0.396474 0.0397586 0.426243 0.247091 0.40773 0.412708 0.353665 0.840649 0.404483 0.258487 0.516088 0.175036 0.092186 0.576854 0.190171 0.329757 0.686302 0.545932 0.451161 0.177172 0.0695286 0.199991 0.126239 0.0709185 0.253066 0.213606 1.05494 0.794488 0.801768 0.791495 0.776347 0.233262 0.776275 0.784465 0.318715 0.459581 0.308453 1.37903 1.27109 1.25531 1.12203 0.43471 0.910878 0.330474 0.212033 0.22569 0.760819 0.687602 0.601307 0.161206 0.552965 0.571935 0.808698 0.57028 0.482629 0.795571 0.458015 0.347508 0.302837 0.0578247 0.0562375 0.514378 0.841296 0.607677 0.663327 1.10398 0.611343 0.619105 0.271539 0.348235 0.224656 0.270472 0.236832 0.420344 0.109458 0.681218 0.414651 1.04349 0.787021 0.240925 0.233641 0.0887226 0.8935 0.930212 0.744598 0.0871223 0.235069 0.139522 1.20163 1.05752 0.63407 0.242588 0.258812 0.333149 0.296961 0.433011 0.887818 0.792212 0.182467 1.01916 1.16482 0.870913 0.322583 0.226899 0.735579 0.727891 0.86364 0.700956 0.719621 0.806799 0.199452 1.01373 0.841832 1.20187 0.147772 0.189105 0.0566483 0.0682969 0.631451 0.0584805 0.272657 0.345746 0.343095 0.629098 0.828908 0.871979 0.513201 0.170068 0.111882 0.0931505 0.632529 0.361797 0.145498 0.0593973 0.0985841 0.0578245 0.283126 0.124488 0.455256 0.280361 0.333562 0.343532 0.253312 0.390072 0.48689 0.460686 0.374933 0.456882 0.207646 0.947957 0.573225 0.54382 0.554967 0.7648 0.745606 0.921552 0.737549 0.742629 0.537804 0.488462 0.404448 0.380158 0.393997 0.417747 0.326733 0.445689 0.308386 0.453155 0.377877 0.249978 0.479692 0.301479 0.348754 0.36597 0.345404 0.28947 0.355584 0.548802 0.641767 0.0583143 0.087392 0.819229 0.792704 0.911878 0.861773 0.455172 0.351842 0.586463 0.793105 0.873239 0.570441 0.74396 0.470985 0.0887354 0.0802421 0.0430447 0.803595 0.772742 0.579496 0.515233 0.9183 0.746741 0.664764 0.701586 0.0548499 1.05468 1.10752 0.854129 0.46237 0.688232 0.0916993 0.0609013 0.567638 0.268199 0.232073 0.0263344 0.0285754 0.128099 0.0765963 0.035404 0.478476 0.722007 1.04227 0.455026 0.239994 0.28179 0.0822845 0.0892545 1.06702 0.734057 0.744304 0.128209 0.201299 0.140285 0.309891 0.132628 0.5505 0.564428 0.65123 0.907671 0.740631 0.739994 0.673369 0.529127 0.69022 0.497615 0.680128 0.465938 0.185921 0.230576 0.564513 1.25067 1.38145 1.24931 0.236302 0.359612 0.899445 0.841732 1.23714 0.857031 0.929851 0.110671 0.0681136 0.0574299 0.0823893 0.0480694 0.0517418 0.029512 0.842496 1.27087 0.0920761 0.311408 0.626778 0.545874 0.120284 1.27848 1.15077 0.0399081 0.00998078 0.376563 1.01486 0.747174 0.99383 0.942767 0.784875 1.07539 1.02573 0.812323 0.893569 0.55797 0.799106 1.42516 1.27988 1.2025 0.638646 0.410238 0.219771 0.383811 0.169224 0.180402 1.03189 0.0208955 0.174742 0.756408 0.738498 0.799491 0.662525 0.777606 0.489188 0.403626 0.866085 0.326027 0.958507 0.0781544 0.602528 0.55177 0.204788 0.15116 0.252161 0.447195 0.0826363 0.670983 0.67491 0.822521 0.39344 0.57757 0.625347 0.426052 0.521118 0.893308 0.714821 0.996166 0.74756 0.774701 0.227999 0.693583 0.486192 0.515468 0.671637 0.581285 0.719886 0.706563 0.68433 0.286441 0.824339 1.10677 1.11071 0.934974 0.796287 0.533592 0.177178 0.603131 0.542793 0.933569 0.777977 0.730553 0.888499 0.464178 0.516957 0.386671 0.400063 1.08739 0.963712 0.0973783 0.777878 0.310012 0.308383 0.752468 0.230084 0.124558 1.24528 0.81482 0.968215 0.0698864 0.0741949 0.480609 0.0626885 0.0729943 1.44308 0.216939 1.04097 0.143273 0.83327 0.844745 0.247808 0.411358 0.199347 0.518025 0.135018 0.718903 0.766044 0.841138 0.889865 0.918463 0.829622 0.192654 0.967375 0.805154 0.471854 0.563092 1.02902 1.00711 0.593961 0.623438 0.545436 1.08262 0.965694 1.01888 0.628365 0.728678 1.01197 0.652509 0.799266 0.726477 0.518795 0.0277301 0.0688871 0.0905033 0.158773 0.375 0.501015 0.527348 0.384116 0.353418 0.692288 0.661412 0.0731365 0.0465233 0.0337189 0.88425 1.02901 0.611191 0.356078 0.084314 0.789489 0.767146 1.00092 0.540509 0.790266 0.0575394 0.631636 0.405562 0.117362 0.214413 0.611742 0.726873 0.637858 0.555001 0.782504 0.598959 1.18711 1.08955 0.931968 1.08868 0.0627158 0.304231 0.0801885 0.185293 0.0669467 0.0536254 0.482511 0.0855399 0.0514893 0.0299476 0.252323 0.170393 0.76371 0.601622 1.04046 1.0408 0.758442 0.213019 0.70067 0.657679 0.135517 1.00357 1.00795 0.0559424 1.09565 1.09825 1.0478 0.307321 0.984926 0.446117 0.253447 0.572459 0.613361 0.152145 0.20618 0.199123 0.204417 0.169313 0.197981 0.332698 0.434771 0.659895 0.147581 0.440094 0.268973 0.55994 0.361817 0.374388 0.777231 0.782039 0.933685 0.970898 1.00691 0.99637 0.30385 1.03039 1.05051 1.17781 1.37441 0.101889 0.0820266 0.863991 0.83339 0.37598 0.457866 0.399568 0.0555165 0.113193 0.0744691 0.0874689 1.35631 0.335965 0.390677 0.356245 0.294904 0.197305 0.235359 0.221914 0.674617 0.597761 0.708347 0.665599 0.78851 0.943067 0.797925 0.982328 0.923308 0.482819 0.0344728 0.0763098 0.0533956 0.0310893 0.955376 0.24 0.413458 0.386325 0.756693 0.977032 0.995556 0.943792 0.890366 0.618488 0.722417 0.745953 0.828939 0.204208 0.846619 0.902678 0.977075 1.02316 0.2843 0.284745 0.381753 0.706719 0.163703 
