# vtk DataFile Version 5.1
vtk output
ASCII

DATASET UNSTRUCTURED_GRID
POINTS 931 float
1 0 -1.19209e-06
1 0 0.166666
1 0 0.333333
1 0 0.5
1 0 0.666667
1 0 0.833334
1 0 1
0.915188 0.169869 -0.0743947
0.935485 0.177775 0.0861748
0.965849 0.171381 0.249084
0.995596 0.1646 0.415112
1.02318 0.158934 0.584424
1.04815 0.157617 0.75377
1.07134 0.1695 0.913566
0.813249 0.337918 -0.136588
0.858328 0.35226 0.0158495
0.917229 0.343288 0.174267
0.975408 0.328695 0.336363
1.02985 0.317129 0.50051
1.08139 0.315458 0.661905
1.13345 0.3372 0.809782
0.694111 0.502168 -0.183324
0.764972 0.521319 -0.0417767
0.852112 0.51284 0.104928
0.939567 0.494332 0.256136
1.02205 0.478476 0.409246
1.09975 0.475923 0.558375
1.17829 0.501651 0.691372
0.571633 0.666073 -0.206865
0.664133 0.687706 -0.0796875
0.776464 0.680227 0.0496141
0.890385 0.660185 0.183775
0.998848 0.641982 0.320527
1.1011 0.63854 0.453389
1.20082 0.665869 0.570233
0.448415 0.830685 -0.208467
0.561056 0.853628 -0.0993882
0.694608 0.846738 0.00845906
0.830538 0.826026 0.121398
0.960983 0.806639 0.237893
1.08422 0.802752 0.35093
1.20224 0.830573 0.448067
0.323771 0.995179 -0.187763
0.454036 1.0191 -0.100783
0.604371 1.01299 -0.0181901
0.758192 0.992266 0.0690466
0.907145 0.972152 0.160923
1.04825 0.967537 0.250561
1.18171 0.994996 0.324709
0.206182 1.16052 -0.14577
0.349147 1.18463 -0.0827312
0.511388 1.17903 -0.0279499
0.67809 1.15847 0.0307485
0.84092 1.13806 0.0949117
0.995511 1.13301 0.158439
1.13976 1.16025 0.208537
0.098911 1.32663 -0.0843908
0.250527 1.35071 -0.0471569
0.41984 1.34516 -0.0215748
0.59426 1.32463 0.00717754
0.765641 1.30415 0.0421987
0.928594 1.29912 0.0780819
1.07896 1.32635 0.102448
0.00271445 1.49257 -0.00411768
0.158383 1.51682 0.00592312
0.329368 1.51152 0.00124505
0.505938 1.4912 -0.00127663
0.680669 1.47065 0.00302511
0.847348 1.46535 0.00961994
0.999554 1.49236 0.00711539
-0.0781611 1.65875 0.0917832
0.0767376 1.68316 0.0738748
0.243958 1.67814 0.039387
0.417024 1.65803 0.00601697
0.589623 1.63747 -0.0205172
0.754918 1.63187 -0.0433513
0.904501 1.65862 -0.0727106
-0.140081 1.82562 0.198969
0.00927195 1.84993 0.15424
0.167916 1.84497 0.0910796
0.33251 1.82492 0.0281196
0.497788 1.80437 -0.0280158
0.656484 1.79876 -0.0792434
0.798531 1.82549 -0.134082
-0.182593 1.9923 0.316608
-0.0432148 2.01641 0.246939
0.101552 2.01195 0.156653
0.252088 1.99232 0.0654897
0.404626 1.9717 -0.019155
0.551806 1.9656 -0.0977986
0.682156 1.99201 -0.176555
-0.203781 2.15857 0.441519
-0.079468 2.18289 0.346968
0.0468423 2.17911 0.232855
0.1784 2.16031 0.117114
0.313085 2.13983 0.00717499
0.443997 2.13287 -0.0962675
0.55841 2.15818 -0.197525
-0.202538 2.32524 0.565386
-0.0968933 2.34932 0.449794
0.00755196 2.34607 0.315118
0.116711 2.32852 0.178738
0.229791 2.30874 0.0478634
0.340383 2.30115 -0.0764621
0.435617 2.32502 -0.19632
-0.17924 2.49145 0.68855
-0.0949476 2.51442 0.556093
-0.0163417 2.51232 0.404308
0.066351 2.49724 0.251021
0.153471 2.47924 0.102849
0.239937 2.4707 -0.038925
0.313837 2.49173 -0.173997
-0.132827 2.65816 0.808474
-0.0766782 2.67851 0.660024
-0.025319 2.67701 0.496486
0.0287616 2.66603 0.33207
0.0870421 2.65222 0.172702
0.146094 2.64356 0.018854
0.194694 2.65885 -0.129521
-0.0717223 2.82876 0.911547
-0.0437456 2.8408 0.753565
-0.0201001 2.83866 0.581948
0.00680649 2.83335 0.412716
0.0367606 2.82678 0.248399
0.0677791 2.82179 0.0889459
0.0895051 2.82905 -0.0685166
-1.19209e-06 3 1
-1.19209e-06 3 0.833334
-1.2517e-06 3 0.666667
-1.2517e-06 3 0.5
-1.2517e-06 3 0.333333
-1.3113e-06 3 0.166666
-1.3113e-06 3 -8.34465e-07
0.833334 0 -1.19209e-06
0.833334 0 0.166666
0.833334 0 0.333333
0.833334 0 0.5
0.833334 0 0.666667
0.833334 0 0.833334
0.833334 0 1
0.755978 0.157735 -0.0464043
0.776134 0.167353 0.116248
0.802135 0.167391 0.278978
0.828619 0.166454 0.44329
0.855414 0.166038 0.609347
0.883113 0.16711 0.775762
0.913023 0.177045 0.935413
0.663524 0.317482 -0.0805915
0.708287 0.333548 0.0741452
0.761299 0.334474 0.230849
0.815019 0.331302 0.389909
0.869182 0.329504 0.550316
0.92499 0.333604 0.708559
0.983888 0.352774 0.85838
0.560265 0.478896 -0.0993743
0.630014 0.498839 0.0442755
0.709612 0.500991 0.189585
0.791357 0.496357 0.337042
0.873114 0.493252 0.485232
0.955367 0.498869 0.630315
1.04185 0.522931 0.765225
0.454501 0.641533 -0.101653
0.546738 0.663785 0.0281343
0.650931 0.667123 0.157258
0.758071 0.661873 0.288142
0.864956 0.657779 0.419557
0.971383 0.663697 0.547473
1.07942 0.689905 0.66532
0.352078 0.805799 -0.0846307
0.465129 0.82909 0.0272275
0.590211 0.833047 0.13634
0.718366 0.827493 0.247001
0.846019 0.822852 0.358184
0.972572 0.828909 0.465461
1.09924 0.855922 0.562253
0.252212 0.970515 -0.0488116
0.382889 0.994421 0.0410156
0.524817 0.998956 0.126425
0.6703 0.993405 0.212746
0.815513 0.988347 0.299652
0.958996 0.994151 0.382788
1.10104 1.02137 0.454859
0.159432 1.13572 0.00326146
0.303544 1.15994 0.0690217
0.458104 1.16494 0.128133
0.616514 1.15948 0.187412
0.774818 1.15419 0.247294
0.930672 1.15971 0.303911
1.08294 1.18687 0.350473
0.078809 1.30175 0.0703212
0.232197 1.32596 0.109923
0.394711 1.33108 0.141148
0.560924 1.32562 0.172047
0.726934 1.32031 0.203714
0.889821 1.32586 0.232617
1.04758 1.35288 0.252081
0.0104621 1.46792 0.151616
0.168186 1.49217 0.163699
0.333365 1.49746 0.165781
0.502136 1.49213 0.166847
0.67096 1.48678 0.16873
0.836341 1.49216 0.168368
0.995066 1.51908 0.159543
-0.0431413 1.63435 0.243619
0.114087 1.65867 0.227478
0.276865 1.66408 0.200626
0.443033 1.65889 0.172059
0.609503 1.65351 0.144109
0.772308 1.65872 0.114602
0.927025 1.68554 0.0779211
-0.0791844 1.80131 0.342297
0.0728443 1.82554 0.298721
0.228494 1.83092 0.243785
0.387135 1.82576 0.186831
0.546107 1.8204 0.130528
0.701088 1.82563 0.0733301
0.84684 1.85239 0.010558
-0.097665 1.9682 0.447347
0.0445159 1.99239 0.37811
0.187728 1.99797 0.296368
0.333455 1.993 0.212106
0.479717 1.98755 0.128462
0.622105 1.99249 0.0446397
0.754711 2.01908 -0.0426595
-0.0965887 2.13546 0.554777
0.0304399 2.15954 0.460584
0.156791 2.1652 0.35493
0.285007 2.16054 0.246473
0.413877 2.15511 0.138471
0.539192 2.15953 0.0308088
0.654101 2.18557 -0.0790368
-0.0769683 2.30355 0.658355
0.0312009 2.32708 0.542537
0.137042 2.33258 0.416002
0.244294 2.32829 0.287187
0.352265 2.32311 0.159149
0.456826 2.32706 0.0318147
0.551214 2.35195 -0.0962553
-0.0391078 2.47242 0.759744
0.0471811 2.49467 0.626243
0.128253 2.49991 0.482036
0.210231 2.49652 0.336002
0.293034 2.49182 0.191217
0.373503 2.49455 0.0476712
0.44568 2.51709 -0.0951992
0.0183478 2.64416 0.853809
0.0767438 2.66279 0.705133
0.131295 2.66682 0.547798
0.185438 2.66484 0.389268
0.240461 2.66154 0.232661
0.294627 2.66268 0.0776956
0.34146 2.68033 -0.0773903
0.0879329 2.82114 0.932267
0.117995 2.83153 0.77403
0.144139 2.83323 0.608528
0.170707 2.83276 0.443336
0.19812 2.83177 0.280123
0.226291 2.83174 0.118693
0.248467 2.84072 -0.0453389
0.166666 3 1
0.166666 3 0.833334
0.166666 3 0.666667
0.166666 3 0.5
0.166666 3 0.333333
0.166666 3 0.166666
0.166666 3 -8.34465e-07
0.666667 0 -1.2517e-06
0.666667 0 0.166666
0.666667 0 0.333333
0.666667 0 0.5
0.666667 0 0.666667
0.666667 0 0.833334
0.666667 0 1
0.583168 0.159773 -0.0230322
0.609549 0.165548 0.142249
0.636664 0.166077 0.306679
0.663869 0.166059 0.471873
0.69187 0.166325 0.638014
0.720773 0.167021 0.803948
0.752636 0.171899 0.966494
0.498436 0.318917 -0.0295234
0.549465 0.32944 0.12851
0.603383 0.331541 0.286327
0.657151 0.331489 0.445301
0.712001 0.331887 0.604804
0.768588 0.334736 0.762628
0.82857 0.344 0.917399
0.406713 0.480941 -0.0211568
0.484104 0.493539 0.125068
0.564216 0.496897 0.271368
0.645331 0.496789 0.418334
0.72726 0.497244 0.56533
0.810132 0.501642 0.710555
0.898377 0.514304 0.851587
0.317895 0.644696 0.00236162
0.418408 0.658225 0.133647
0.522958 0.662367 0.263602
0.628782 0.662245 0.393784
0.735268 0.662599 0.523708
0.842226 0.667696 0.651758
0.953301 0.682242 0.775803
0.235903 0.809501 0.0412828
0.357554 0.823308 0.153226
0.482784 0.827901 0.263172
0.609118 0.827744 0.3733
0.735915 0.827972 0.483021
0.862945 0.833393 0.59046
0.993933 0.848908 0.693004
0.159713 0.974872 0.095588
0.299077 0.988701 0.1839
0.4413 0.993576 0.270115
0.584898 0.993477 0.356178
0.729047 0.993559 0.441705
0.873057 0.999093 0.524861
1.02038 1.01526 0.601807
0.0939399 1.14056 0.161612
0.246414 1.1544 0.224401
0.401448 1.15946 0.284253
0.557924 1.15943 0.343573
0.714902 1.1594 0.402189
0.871255 1.16492 0.45862
1.02956 1.18127 0.508967
0.04196 1.30663 0.237364
0.203093 1.32043 0.272554
0.366069 1.32559 0.30454
0.53022 1.32557 0.335946
0.694594 1.32553 0.366654
0.85798 1.33103 0.395276
1.02248 1.34734 0.417252
0.00336022 1.47306 0.322581
0.167947 1.4868 0.328859
0.333774 1.49203 0.331594
0.500736 1.49207 0.333438
0.667858 1.49204 0.334603
0.833735 1.49751 0.33375
0.999468 1.51386 0.326202
-0.019897 1.63979 0.413051
0.143012 1.65348 0.390133
0.306577 1.65874 0.363732
0.471164 1.65885 0.336122
0.635885 1.6588 0.30767
0.799036 1.66422 0.277581
0.960696 1.68059 0.240996
-0.0266387 1.80678 0.504755
0.129751 1.82045 0.453543
0.286132 1.82567 0.399056
0.4433 1.82577 0.343486
0.600398 1.82572 0.287131
0.755585 1.83109 0.229402
0.908221 1.8474 0.165427
-0.0171866 1.97415 0.597959
0.127817 1.98777 0.520402
0.271831 1.99292 0.438922
0.41639 1.993 0.356242
0.560809 1.99292 0.272801
0.703238 1.99821 0.188405
0.842319 2.01451 0.098797
0.00932231 2.14221 0.688619
0.137598 2.15552 0.586024
0.26475 2.16049 0.480503
0.392172 2.16051 0.373582
0.519357 2.16041 0.265868
0.644576 2.16551 0.157694
0.76521 2.18172 0.0445449
0.050548 2.31095 0.77097
0.158511 2.32378 0.647061
0.265151 2.32837 0.520878
0.371952 2.32831 0.39384
0.478481 2.32814 0.266423
0.582959 2.33287 0.138552
0.682265 2.34852 0.00636453
0.105972 2.48089 0.847076
0.190854 2.49259 0.706126
0.272878 2.49656 0.562361
0.354844 2.49655 0.41828
0.436603 2.49619 0.274265
0.516961 2.50012 0.130083
0.593179 2.51455 -0.0172428
0.175335 2.6531 0.912815
0.232052 2.66192 0.758292
0.287672 2.66478 0.601856
0.342198 2.66489 0.445229
0.396801 2.66439 0.289301
[...]
POINT_DATA 931
SCALARS scalars float 1
LOOKUP_TABLE default
1 0.849838 0.745357 0.707108 0.745357 0.849838 1 0.918213 0.773712 0.67981 0.646481 0.684627 0.783836 0.916352 0.824652 0.692101 0.609428 0.582387 0.618607 0.707084 0.820712 0.717916 0.600141 0.529439 0.50878 0.542441 0.619143 0.713991 0.607913 0.504247 0.446105 0.431527 0.462268 0.527304 0.604562 0.494512 0.407225 0.361622 0.352202 0.379378 0.432474 0.491601 0.374307 0.305128 0.271958 0.267377 0.290692 0.331695 0.372127 0.252582 0.201161 0.180658 0.180911 0.200477 0.229211 0.251121 0.130193 0.0977672 0.0899371 0.0949325 0.111483 0.127837 0.129532 0.00891903 0.0196584 0.0122508 0.0106954 0.0326585 0.0385979 0.0104528 0.120814 0.117545 0.0983417 0.0836408 0.084907 0.0961198 0.120298 0.243456 0.220994 0.189193 0.170042 0.17362 0.196852 0.242135 0.365569 0.324497 0.28001 0.256531 0.264259 0.300009 0.363676 0.486345 0.425714 0.369396 0.34232 0.354671 0.402483 0.483828 0.600623 0.521569 0.453426 0.422944 0.440178 0.499882 0.597611 0.711548 0.614727 0.534687 0.501069 0.523812 0.595393 0.707929 0.819357 0.703554 0.612566 0.576486 0.604979 0.687886 0.815693 0.914375 0.782425 0.680887 0.643097 0.677146 0.77079 0.913079 1 0.849838 0.745357 0.707108 0.745357 0.849838 1 0.849838 0.666668 0.527047 0.471405 0.527047 0.666667 0.849837 0.785482 0.61155 0.482068 0.429547 0.48124 0.611126 0.773721 0.708274 0.549465 0.432754 0.386106 0.433836 0.549589 0.692174 0.62058 0.479241 0.376977 0.337535 0.379671 0.479441 0.600457 0.528392 0.404541 0.317737 0.285272 0.321483 0.405068 0.505474 0.433437 0.329456 0.258662 0.232748 0.262594 0.329674 0.408468 0.333033 0.250142 0.19567 0.176547 0.19994 0.250068 0.306137 0.230386 0.168272 0.130597 0.118564 0.135474 0.168402 0.202662 0.128416 0.086997 0.0665091 0.0616458 0.071932 0.0871554 0.099708 0.0369469 0.00850663 0.00269459 0.00816052 0.0140544 0.00856666 0.0209542 0.0939515 0.0807877 0.0659438 0.0577473 0.0628452 0.0806104 0.116436 0.195299 0.162178 0.130171 0.114901 0.126523 0.162049 0.219524 0.298883 0.244309 0.195007 0.172775 0.19122 0.244058 0.32303 0.401165 0.32403 0.258094 0.229409 0.254619 0.324079 0.424704 0.498567 0.399585 0.317331 0.28273 0.314658 0.399978 0.520464 0.595005 0.474885 0.376186 0.335637 0.374528 0.475009 0.613299 0.687756 0.545937 0.43137 0.385362 0.431316 0.546018 0.702442 0.77073 0.609313 0.480661 0.430093 0.48209 0.608937 0.780899 0.849838 0.666668 0.527047 0.471405 0.527047 0.666668 0.849838 0.745357 0.527047 0.333334 0.235703 0.333334 0.527047 0.745357 0.683469 0.482347 0.3045 0.214585 0.305722 0.483888 0.679786 0.616694 0.434169 0.274116 0.192967 0.275233 0.434152 0.608798 0.539854 0.379714 0.239074 0.168394 0.239794 0.377938 0.528317 0.459437 0.321434 0.202085 0.142333 0.202399 0.31855 0.4452 0.376181 0.262635 0.16519 0.116341 0.165016 0.258826 0.360058 0.287511 0.199976 0.125278 0.0881592 0.125208 0.195606 0.269677 0.19747 0.13556 0.0842641 0.059266 0.084383 0.130912 0.178702 0.108091 0.0720237 0.0442798 0.0313117 0.0441712 0.0667063 0.0879997 0.029202 0.0139938 0.00816466 0.00796379 0.00814414 0.00255643 0.0155942 0.0864485 0.0629243 0.0412662 0.0300052 0.0408416 0.0655031 0.101316 0.175499 0.126409 0.0812783 0.0580957 0.0811436 0.129813 0.191869 0.26644 0.191451 0.1224 0.0869735 0.122148 0.194762 0.282986 0.356248 0.254601 0.162483 0.115259 0.162144 0.257837 0.372494 0.441115 0.313979 0.199616 0.141713 0.199795 0.317218 0.456174 0.524907 0.37365 0.236897 0.16822 0.237556 0.376035 0.537233 0.605579 0.429986 0.272384 0.193456 0.273444 0.430998 0.614468 0.677115 0.480283 0.303405 0.215303 0.304624 0.479608 0.681956 0.745357 0.527047 0.333334 0.235703 0.333334 0.527047 0.745357 0.707108 0.471405 0.235703 2.6656e-07 0.235702 0.471405 0.707107 0.64554 0.43166 0.216117 0.000565664 0.216105 0.431667 0.645549 0.580271 0.387872 0.194718 0.0018931 0.19473 0.387894 0.580267 0.505697 0.33872 0.169776 0.00316755 0.169793 0.338772 0.505714 0.428203 0.286241 0.143431 0.00435902 0.143494 0.286341 0.428226 0.348098 0.233237 0.117101 0.00557059 0.117248 0.233398 0.34818 0.262692 0.176871 0.0889373 0.00657895 0.0891567 0.177091 0.262813 0.176441 0.119191 0.0601539 0.00735025 0.0603949 0.11941 0.176607 0.09013 0.062139 0.0321392 0.00788942 0.0323771 0.0623872 0.0902743 0.00676999 0.00824964 0.00821744 0.00802182 0.00828464 0.00835348 0.00696791 0.0880502 0.0571986 0.0292215 0.00788203 0.0290486 0.0570358 0.087962 0.174303 0.11424 0.0571621 0.00761498 0.0570328 0.114095 0.174204 0.261047 0.17242 0.0861588 0.00701997 0.0860229 0.172295 0.260994 0.346284 0.228845 0.114392 0.00613481 0.114284 0.228753 0.346303 0.426154 0.281717 0.140549 0.00493317 0.140475 0.281645 0.426183 0.504063 0.334428 0.166862 0.00334192 0.166843 0.334396 0.504101 0.578532 0.383642 0.191739 0.00175864 0.191768 0.383639 0.578581 0.643936 0.428034 0.213846 0.000627071 0.213907 0.428092 0.643912 0.707108 0.471405 0.235703 2.6656e-07 0.235702 0.471405 0.707108 0.745357 0.527047 0.333334 0.235702 0.333334 0.527047 0.745357 0.679792 0.483894 0.305714 0.214615 0.304494 0.482357 0.683482 0.608805 0.434117 0.2752 0.192969 0.274101 0.434181 0.616699 0.528285 0.377868 0.239746 0.168353 0.239065 0.379728 0.539839 0.445141 0.318445 0.202312 0.142258 0.202093 0.321497 0.459442 0.35993 0.258634 0.164833 0.116192 0.165223 0.262718 0.376224 0.269542 0.195404 0.125032 0.0880808 0.125357 0.2001 0.28759 0.178525 0.130703 0.0841832 0.0592014 0.0843952 0.135691 0.197599 0.0878689 0.0664768 0.0439804 0.0312305 0.0444016 0.0721664 0.108208 0.0158107 0.00249968 0.00811964 0.00793636 0.00824694 0.0140585 0.0293458 0.101443 0.0656903 0.040996 0.0300634 0.0412098 0.0628181 0.0864302 0.191985 0.129976 0.0812533 0.0581506 0.0812223 0.126342 0.175455 0.283027 0.194881 0.122207 0.0869705 0.122356 0.191404 0.266435 0.37243 0.257957 0.162188 0.115244 0.162437 0.254552 0.356257 0.456136 0.317286 0.199833 0.141707 0.19958 0.31395 0.441085 0.537153 0.376034 0.237551 0.168198 0.236904 0.373633 0.524883 0.614422 0.430957 0.273397 0.193429 0.2724 0.43003 0.605597 0.681944 0.479553 0.304586 0.215304 0.303441 0.480344 0.677143 0.745357 0.527047 0.333334 0.235702 0.333334 0.527047 0.745357 0.849838 0.666668 0.527047 0.471405 0.527047 0.666667 0.849837 0.773758 0.611114 0.481259 0.429568 0.482087 0.611536 0.785443 0.692149 0.549538 0.433786 0.386077 0.43272 0.549455 0.708277 0.600411 0.479359 0.379568 0.337475 0.376953 0.479193 0.620545 0.505387 0.404936 0.32134 0.285153 0.317709 0.404527 0.528337 0.408382 0.329518 0.262443 0.23262 0.258644 0.329454 0.433425 0.306024 0.249905 0.19982 0.176471 0.195665 0.250171 0.333065 0.202494 0.168222 0.135323 0.118483 0.130625 0.168324 0.230459 0.0995895 0.0869672 0.0717853 0.0615371 0.0665461 0.0870811 0.128507 0.0212486 0.0084628 0.0140069 0.00810013 0.00276825 0.00852988 0.0369989 0.116639 0.0807314 0.0629524 0.0578025 0.0659025 0.0807316 0.0939277 0.219674 0.162164 0.126606 0.114949 0.130152 0.162142 0.195249 0.323113 0.244139 0.191302 0.172835 0.195025 0.244317 0.298865 0.424736 0.324145 0.25467 0.229442 0.258096 0.324009 0.401132 0.520454 0.400013 0.314702 0.28275 0.317365 0.399581 0.498578 0.613219 0.474993 0.374493 0.335624 0.376194 0.474892 0.595006 0.702371 0.545932 0.431267 0.385338 0.431393 0.545956 0.687752 0.78082 0.608885 0.481999 0.430063 0.480654 0.60932 0.770726 0.849838 0.666667 0.527047 0.471405 0.527047 0.666667 0.849837 1 0.849838 0.745357 0.707108 0.745357 0.849837 1 0.916488 0.783821 0.684528 0.646427 0.679824 0.773697 0.918214 0.820662 0.707024 0.618548 0.582379 0.609451 0.692091 0.824673 0.713939 0.619036 0.542321 0.508725 0.529417 0.600071 0.717897 0.604493 0.52719 0.462105 0.431423 0.446103 0.504197 0.607828 0.491568 0.43238 0.379282 0.352142 0.361637 0.407219 0.494522 0.372062 0.331576 0.290592 0.267286 0.271938 0.305135 0.374382 0.25102 0.229045 0.200375 0.180861 0.180695 0.201225 0.25266 0.129471 0.127664 0.111387 0.0948929 0.0900282 0.0978697 0.130246 0.0101879 0.0383644 0.0325273 0.010573 0.0124099 0.0197484 0.00884394 0.120342 0.0961357 0.0849146 0.083646 0.0983218 0.117505 0.120755 0.242182 0.196889 0.173626 0.170071 0.189169 0.220931 0.243379 0.363658 0.300013 0.264266 0.256563 0.279984 0.324444 0.365435 0.483789 0.402505 0.354716 0.34235 0.369389 0.425648 0.486323 0.597508 0.49986 0.440187 0.42294 0.453418 0.521533 0.600596 0.707756 0.59535 0.523746 0.501059 0.534686 0.614691 0.711554 0.815561 0.687773 0.604868 0.576437 0.612553 0.703491 0.819259 0.912932 0.770737 0.677066 0.643021 0.68083 0.782347 0.91433 1 0.849837 0.745357 0.707107 0.745357 0.849837 1 
