# vtk DataFile Version 5.1
vtk output
ASCII

DATASET UNSTRUCTURED_GRID
POINTS 1579 float
1 0 -1.19209e-06
1 0 0.166666
1 0 0.333333
1 0 0.5
1 0 0.666667
1 0 0.833334
1 0 1
0.910657 0.170525 -0.0705244
0.93342 0.18172 0.0871115
0.963452 0.17414 0.247144
0.993894 0.165668 0.412026
1.0221 0.158432 0.581936
1.04541 0.155734 0.754177
1.07054 0.170502 0.91074
0.806236 0.338873 -0.131422
0.854771 0.359084 0.0163525
0.914321 0.349407 0.172104
0.972483 0.331626 0.332324
1.02718 0.316983 0.496632
1.07812 0.314215 0.659154
1.13142 0.338884 0.806301
0.690329 0.504068 -0.174206
0.763202 0.528452 -0.0385072
0.849971 0.52006 0.104789
0.936513 0.499094 0.254239
1.01881 0.480404 0.406667
1.09651 0.476686 0.556809
1.17422 0.504093 0.69035
0.566435 0.668713 -0.197747
0.661628 0.695469 -0.077787
0.77307 0.688457 0.0481101
0.886007 0.666589 0.18032
0.994851 0.645819 0.316231
1.09781 0.640822 0.449609
1.19774 0.668726 0.566404
0.442406 0.834515 -0.199168
0.557282 0.861898 -0.0978851
0.689168 0.855507 0.00664805
0.824109 0.833437 0.117391
0.955487 0.812014 0.232211
1.08033 0.806623 0.345217
1.19921 0.834503 0.44232
0.321997 1.00106 -0.177967
0.452871 1.02846 -0.0982679
0.60081 1.02206 -0.0182402
0.752668 0.999971 0.0674202
0.901847 0.978387 0.157704
1.04421 0.973029 0.247256
1.17802 1.001 0.321896
0.205856 1.16716 -0.135617
0.348478 1.19487 -0.0801613
0.508131 1.18874 -0.027495
0.672607 1.16674 0.0300518
0.835222 1.1449 0.0927202
0.990952 1.13932 0.155864
1.1357 1.16714 0.205788
0.0979337 1.33321 -0.0743209
0.248046 1.36117 -0.0448573
0.414594 1.35541 -0.0211793
0.586964 1.33348 0.0064384
0.758397 1.31147 0.0394502
0.923015 1.30557 0.0741709
1.07438 1.33322 0.0978779
0.00351926 1.4998 0.00405801
0.156686 1.52763 0.00683962
0.324902 1.52186 0.00117314
0.499663 1.49989 -0.00160421
0.674486 1.47788 0.00107058
0.84279 1.47204 0.0065716
0.995961 1.49983 0.00349414
-0.0747263 1.66635 0.0984919
0.0765661 1.69413 0.0745018
0.241004 1.68835 0.0397161
0.412459 1.66625 0.00659979
0.584849 1.64429 -0.0211232
0.751444 1.63844 -0.0450184
0.901537 1.66638 -0.0748107
-0.135858 1.83234 0.206382
0.00869048 1.8604 0.156285
0.164268 1.85498 0.0931067
0.326924 1.83296 0.0303386
0.491409 1.81095 -0.027313
0.651101 1.80475 -0.0801542
0.793688 1.83239 -0.135915
-0.178161 1.99841 0.3225
-0.0445675 2.02663 0.247757
0.097646 2.02151 0.158178
0.246851 1.99981 0.0677734
0.398707 1.97766 -0.0180111
0.546719 1.97121 -0.0982259
0.677569 1.99849 -0.178202
-0.199244 2.16496 0.442877
-0.0805955 2.19305 0.34568
0.0441077 2.18786 0.232685
0.175456 2.16642 0.117814
0.310408 2.14425 0.00691612
0.442252 2.13781 -0.0978052
0.55711 2.16507 -0.199314
-0.197666 2.33081 0.566861
-0.0979396 2.35886 0.449997
0.00493263 2.35404 0.316637
0.113749 2.33331 0.180719
0.226675 2.31135 0.0484067
0.337937 2.30437 -0.0775954
0.432986 2.33099 -0.197716
-0.173994 2.49556 0.690716
-0.0965184 2.52305 0.5572
-0.0189123 2.51941 0.407075
0.0633788 2.50082 0.254638
0.149831 2.47986 0.105117
0.236418 2.47158 -0.0381797
0.309091 2.49581 -0.173981
-0.131201 2.66091 0.806552
-0.0780642 2.68567 0.659471
-0.0271682 2.68282 0.497009
0.0274638 2.6683 0.332725
0.0855215 2.65058 0.172501
0.144902 2.64104 0.0167171
0.193281 2.66113 -0.131128
-0.070386 2.82946 0.910852
-0.0453966 2.84417 0.75436
-0.0220668 2.84147 0.582155
0.0061304 2.83429 0.412376
0.0364724 2.82591 0.247491
0.0663935 2.81843 0.0874807
0.0889973 2.82948 -0.0703115
-1.01328e-06 3 1
-1.01328e-06 3 0.833334
-1.07288e-06 3 0.666667
-1.07288e-06 3 0.5
-1.07288e-06 3 0.333333
-1.13249e-06 3 0.166666
-1.13249e-06 3 -1.10269e-06
0.833334 0 -1.19209e-06
0.833334 0 0.166666
0.833334 0 0.333333
0.833334 0 0.5
0.833334 0 0.666667
0.833333 0 0.833334
0.833333 0 1
0.754153 0.155824 -0.045437
0.776815 0.168246 0.117132
0.802384 0.167649 0.278139
0.82845 0.166732 0.44218
0.855285 0.166443 0.609159
0.882883 0.168167 0.776836
0.912865 0.181659 0.93349
0.659155 0.31425 -0.0781278
0.706243 0.335533 0.0747689
0.759425 0.337111 0.230828
0.814115 0.332935 0.388813
0.869283 0.330412 0.548783
0.925235 0.3355 0.706251
0.983603 0.359045 0.854845
0.556826 0.476716 -0.0965385
0.628406 0.501833 0.0450135
0.707617 0.505233 0.189859
0.789736 0.499954 0.337015
0.872291 0.495857 0.484352
0.954977 0.501796 0.628397
1.03847 0.528447 0.763249
0.449676 0.640847 -0.0978489
0.544433 0.66785 0.0283434
0.648246 0.672503 0.157204
0.756048 0.667021 0.287719
0.864385 0.662094 0.418083
0.971636 0.667824 0.544378
1.07774 0.695474 0.661636
0.345313 0.806662 -0.0803722
0.460818 0.83408 0.0271281
0.585697 0.839136 0.135993
0.715124 0.833524 0.246008
0.844969 0.828335 0.355421
0.972867 0.834046 0.460758
1.09791 0.86189 0.557301
0.247358 0.973087 -0.044246
0.379828 1.00056 0.0415282
0.521535 1.00563 0.127082
0.667774 0.999971 0.21306
0.8144 0.994713 0.298314
0.958477 1.00047 0.379775
1.09833 1.02839 0.452855
0.155895 1.13936 0.00901428
0.301181 1.16709 0.0702517
0.455554 1.17243 0.1295
0.614524 1.16683 0.188306
0.77374 1.16142 0.246367
0.929779 1.16698 0.301175
1.08024 1.19477 0.348492
0.0741861 1.30565 0.0770082
0.227924 1.33358 0.111673
0.390512 1.33913 0.142702
0.557652 1.33362 0.172465
0.724918 1.32808 0.201488
0.888363 1.33348 0.227907
1.04492 1.3611 0.248099
0.00659737 1.47214 0.157224
0.16422 1.49995 0.164453
0.329903 1.50541 0.166674
0.499878 1.49989 0.167027
0.669896 1.49435 0.166608
0.835607 1.49986 0.164189
0.993252 1.52759 0.156725
-0.0449718 1.63855 0.248578
0.111544 1.66629 0.22818
0.274913 1.67171 0.20164
0.442147 1.66617 0.172558
0.609288 1.66066 0.142716
0.77188 1.6662 0.111483
0.925557 1.69413 0.0765448
-0.0801566 1.80484 0.348957
0.0701936 1.83276 0.301431
0.22613 1.83843 0.246556
0.385278 1.83298 0.18845
0.544249 1.82738 0.129563
0.698599 1.83268 0.0701512
0.843778 1.86043 0.00867568
-0.0982251 1.97125 0.453321
0.0414463 1.9993 0.380082
0.185385 2.00519 0.29854
0.331973 1.99987 0.213198
0.478231 1.99413 0.12713
0.619916 1.99919 0.041424
0.752273 2.0267 -0.0445716
-0.0977799 2.13779 0.557692
0.0270933 2.16575 0.461024
0.154886 2.17157 0.355647
0.284675 2.16636 0.246168
0.414118 2.1606 0.136037
0.538929 2.16565 0.0270807
0.654249 2.19309 -0.0805864
-0.0775857 2.30428 0.661932
0.0283581 2.33198 0.544544
0.13555 2.33778 0.418243
0.243872 2.33284 0.287837
0.351635 2.32729 0.157271
0.455347 2.33194 0.0283682
0.549914 2.35886 -0.0979011
-0.0382297 2.47147 0.763443
0.0450792 2.49811 0.628533
0.127688 2.504 0.484449
0.210235 2.49999 0.337129
0.292298 2.49465 0.18991
0.371375 2.49809 0.0450981
0.442778 2.52311 -0.0964736
0.0166121 2.64099 0.854952
0.0748516 2.66453 0.706341
0.130759 2.66948 0.54885
0.185898 2.66708 0.388946
0.240498 2.66288 0.23094
0.293558 2.66456 0.0748913
0.340538 2.68575 -0.0780416
0.087287 2.81847 0.933501
0.117163 2.83189 0.776885
0.14477 2.8335 0.60918
0.171596 2.83333 0.442307
0.197549 2.83241 0.278243
0.223077 2.83186 0.117241
0.245662 2.84421 -0.0453995
0.166666 3 1
0.166666 3 0.833334
0.166666 3 0.666667
0.166666 3 0.5
0.166666 3 0.333333
0.166666 3 0.166666
0.166666 3 -1.10269e-06
0.666667 0 -1.2517e-06
0.666667 0 0.166666
0.666667 0 0.333333
0.666667 0 0.5
0.666667 0 0.666667
0.666667 0 0.833334
0.666667 0 1
0.581951 0.158471 -0.0221479
0.609142 0.166471 0.144718
0.637133 0.166672 0.307591
0.664429 0.166579 0.47176
0.692439 0.166644 0.637143
0.721875 0.167618 0.802394
0.752807 0.174115 0.963505
0.496689 0.317027 -0.0271786
0.548786 0.330434 0.130736
0.602679 0.333421 0.28741
0.657183 0.333103 0.444663
0.712612 0.333396 0.602676
0.769181 0.337075 0.759446
0.82788 0.349384 0.914381
0.40672 0.480452 -0.0188516
0.484368 0.495896 0.127696
0.563831 0.500273 0.272815
0.644976 0.500064 0.418479
0.727171 0.500254 0.563811
0.810137 0.50521 0.707606
0.895161 0.520053 0.850011
0.316319 0.645882 0.00509292
0.418127 0.662144 0.135611
0.521968 0.667156 0.264616
0.628108 0.667033 0.393646
0.735381 0.667124 0.521954
0.8428 0.672501 0.648223
0.951852 0.688473 0.773106
0.232322 0.812087 0.0444319
0.355488 0.828387 0.155018
0.480359 0.833607 0.264017
0.607668 0.833475 0.372747
0.735969 0.833556 0.480329
0.863991 0.839113 0.585671
0.993334 0.8555 0.689223
0.15777 0.97849 0.0980623
0.298377 0.994779 0.185565
0.440093 1.00006 0.27125
0.584018 0.999909 0.356327
0.728736 0.99998 0.44007
0.872917 1.00555 0.521521
1.01826 1.022 0.60086
0.0927231 1.14504 0.164707
0.246392 1.16148 0.226264
0.400835 1.16691 0.285625
0.557378 1.1668 0.343958
0.714432 1.16682 0.400811
0.870545 1.17231 0.455579
1.02755 1.18864 0.508181
0.0394324 1.31161 0.241571
0.201499 1.32816 0.275106
0.364186 1.33364 0.306268
0.528842 1.33358 0.335981
0.693763 1.33356 0.364172
0.857345 1.33901 0.39051
1.02125 1.35528 0.414685
0.00105738 1.47803 0.325517
0.166628 1.49443 0.330156
0.332454 1.49987 0.332501
0.499997 1.49981 0.33325
0.667529 1.4998 0.332437
0.833356 1.5053 0.329891
0.998913 1.52171 0.324997
-0.0211224 1.64443 0.41515
0.142759 1.66077 0.390762
0.30626 1.66614 0.364287
0.471125 1.66607 0.336025
0.635724 1.66607 0.306245
0.798386 1.67157 0.274911
0.960367 1.68818 0.24112
-0.0273588 1.81109 0.5086
0.129593 1.82749 0.455784
0.285634 1.83297 0.400923
0.442611 1.83291 0.344001
0.599076 1.83289 0.285615
0.753471 1.83825 0.22614
0.906978 1.85481 0.164357
-0.0180765 1.9778 0.601285
0.127126 1.99424 0.521747
0.271208 1.99984 0.440191
0.415883 1.99983 0.356368
0.559761 1.99977 0.271221
0.701455 2.00498 0.185432
0.84188 2.02135 0.0977487
0.00689486 2.14438 0.689585
0.136071 2.16076 0.585865
0.263996 2.16622 0.480431
0.392253 2.16628 0.372783
0.519516 2.16617 0.263978
0.644342 2.17139 0.154918
0.767357 2.18769 0.0441991
0.0484089 2.3115 0.773309
0.15731 2.32744 0.648342
0.26463 2.33271 0.521993
0.371869 2.33272 0.393661
0.477944 2.33263 0.264613
0.581699 2.33766 0.135589
0.683351 2.35388 0.00500778
0.105078 2.47997 0.850134
0.189932 2.49475 0.707658
0.272828 2.49958 0.563833
0.355005 2.4997 0.4185
0.436065 2.49958 0.272834
0.515448 2.50396 0.127725
0.592932 2.51932 -0.0188203
0.172357 2.65068 0.914419
0.230894 2.66293 0.759414
0.287408 2.6665 0.602679
0.342796 2.66671 0.444671
0.397199 2.66651 0.287452
[...]
POINT_DATA 1579
SCALARS scalars float 1
LOOKUP_TABLE default
1 0.849837 0.745356 0.707107 0.745357 0.849837 1 0.913392 0.771833 0.676894 0.643193 0.681944 0.783505 0.913475 0.816896 0.68878 0.606156 0.577653 0.613906 0.7034 0.81696 0.711982 0.598453 0.527539 0.505155 0.538297 0.616312 0.712006 0.599964 0.501864 0.442897 0.426048 0.456226 0.522268 0.599932 0.485173 0.403705 0.356586 0.344713 0.371205 0.42532 0.485111 0.367907 0.303939 0.269004 0.261508 0.283985 0.326085 0.367846 0.246514 0.200691 0.178319 0.175203 0.193602 0.22335 0.246502 0.122942 0.0970026 0.086829 0.0872018 0.102219 0.119644 0.122932 0.00537517 0.0301595 0.0234609 0.00164263 0.0234833 0.0302428 0.00534321 0.123632 0.120096 0.102821 0.0877903 0.0874123 0.0976169 0.12366 0.247087 0.223861 0.194218 0.175715 0.17878 0.201123 0.24706 0.368443 0.326669 0.28466 0.262065 0.269491 0.304343 0.368402 0.485635 0.425827 0.37181 0.345266 0.35703 0.404157 0.485675 0.600341 0.522652 0.456656 0.426438 0.443192 0.502272 0.600501 0.712308 0.61666 0.538668 0.505449 0.527801 0.59881 0.71249 0.817174 0.703674 0.614198 0.577927 0.60642 0.689111 0.817326 0.913576 0.783675 0.682114 0.643399 0.677091 0.772057 0.91372 1 0.849838 0.745357 0.707108 0.745357 0.849838 1 0.849837 0.666667 0.527046 0.471405 0.527047 0.666667 0.849838 0.783488 0.612157 0.482116 0.428703 0.481016 0.61218 0.771904 0.703402 0.54735 0.430912 0.38473 0.432521 0.547359 0.688853 0.61634 0.4775 0.375038 0.336103 0.378447 0.477488 0.598498 0.522345 0.402296 0.315109 0.283221 0.319881 0.402237 0.501864 0.425418 0.325571 0.254288 0.229289 0.259701 0.325515 0.403728 0.326181 0.247179 0.192402 0.17407 0.19795 0.247136 0.303939 0.223391 0.165499 0.127876 0.116551 0.133583 0.165513 0.200718 0.119618 0.0823213 0.0622678 0.0579433 0.0680685 0.082333 0.0970568 0.0301472 0.00329936 0.00641022 0.000394556 0.00650473 0.00336543 0.0300927 0.0975821 0.0825989 0.0682751 0.0581545 0.0624661 0.0825953 0.120076 0.201164 0.165737 0.133794 0.116773 0.128055 0.165738 0.223832 0.304378 0.247441 0.198258 0.174351 0.192628 0.247454 0.326654 0.404099 0.325773 0.259964 0.229533 0.254471 0.325821 0.425883 0.502146 0.402396 0.320045 0.283345 0.31523 0.402495 0.52271 0.59868 0.477607 0.378539 0.336186 0.375127 0.477691 0.616663 0.688964 0.547433 0.43256 0.384797 0.431005 0.547526 0.703659 0.771929 0.612225 0.481014 0.42875 0.482205 0.612256 0.783656 0.849838 0.666667 0.527047 0.471405 0.527047 0.666667 0.849838 0.745357 0.527047 0.333333 0.235702 0.333334 0.527047 0.745357 0.681983 0.480999 0.304888 0.214939 0.304901 0.482122 0.676961 0.61395 0.432516 0.273233 0.192616 0.273234 0.430931 0.606217 0.538366 0.378468 0.238311 0.16813 0.238287 0.375027 0.527588 0.456324 0.319917 0.200762 0.141596 0.200747 0.315086 0.442937 0.371334 0.259758 0.162547 0.114656 0.162513 0.254259 0.356642 0.284089 0.198016 0.123499 0.0871077 0.123472 0.192385 0.269049 0.193649 0.133593 0.0826593 0.0583537 0.0826725 0.127908 0.178365 0.102211 0.0680473 0.0410431 0.0289645 0.041052 0.062273 0.0868985 0.0233422 0.00641162 0.00121766 0.000203471 0.00126063 0.00631603 0.0232835 0.0873752 0.0624848 0.0411262 0.0290062 0.0411289 0.0682531 0.102649 0.178778 0.128073 0.0827274 0.0583737 0.082739 0.133763 0.194081 0.269477 0.192604 0.123605 0.0872143 0.12364 0.198221 0.284531 0.357015 0.254447 0.162621 0.114742 0.162677 0.259947 0.371704 0.443169 0.315202 0.200781 0.141624 0.200846 0.320065 0.456603 0.527755 0.375083 0.238309 0.168158 0.238406 0.378605 0.5386 0.606319 0.43091 0.273233 0.192637 0.273346 0.432638 0.614125 0.676967 0.482116 0.304887 0.214927 0.304914 0.480998 0.682024 0.745357 0.527047 0.333334 0.235702 0.333334 0.527047 0.745357 0.707107 0.471405 0.235702 4.91512e-07 0.235703 0.471405 0.707108 0.643215 0.428673 0.214893 7.63175e-05 0.214914 0.428696 0.643243 0.577677 0.384691 0.192584 0.000330005 0.192588 0.384719 0.577689 0.505204 0.336075 0.168139 3.0672e-05 0.168114 0.336076 0.505192 0.426115 0.283203 0.141588 0.000373994 0.141595 0.283226 0.426108 0.344798 0.229292 0.114658 0.000137856 0.11466 0.22931 0.344792 0.261615 0.174098 0.0871227 8.53996e-05 0.0870845 0.174093 0.261593 0.175267 0.116572 0.0583167 0.000165486 0.058288 0.116573 0.175283 0.0872536 0.0579172 0.0289428 0.000290881 0.0289359 0.0579281 0.0872667 0.00167999 0.000405265 0.000200628 0.000196078 0.000247995 0.000394294 0.00174368 0.0877506 0.0581876 0.0290322 0.000636203 0.0290131 0.0581666 0.0877523 0.17566 0.116781 0.0583762 0.000460784 0.0583798 0.116769 0.175648 0.261967 0.174307 0.0871704 0.000172243 0.0872424 0.174335 0.262015 0.345154 0.229467 0.114681 0.000341889 0.11476 0.229515 0.345226 0.426349 0.28331 0.141604 0.000533811 0.141659 0.28339 0.426412 0.505425 0.336148 0.168126 0.000143858 0.168219 0.336215 0.505418 0.57785 0.384701 0.19255 0.000292368 0.192654 0.384801 0.577889 0.6433 0.428683 0.214898 4.77203e-05 0.214924 0.428708 0.643287 0.707108 0.471405 0.235703 6.664e-08 0.235703 0.471405 0.707108 0.745357 0.527047 0.333334 0.235703 0.333334 0.527047 0.745357 0.676927 0.482102 0.304853 0.214887 0.304874 0.480985 0.681974 0.606163 0.430865 0.273208 0.192584 0.27321 0.432491 0.613935 0.527543 0.375006 0.238312 0.168137 0.238283 0.37846 0.538357 0.442917 0.315073 0.200758 0.141579 0.200754 0.319907 0.456296 0.356632 0.254242 0.162521 0.114636 0.162527 0.259724 0.371287 0.269058 0.192377 0.123477 0.087101 0.123455 0.19798 0.28406 0.178355 0.12788 0.0826412 0.0583027 0.0826203 0.13356 0.19365 0.0869108 0.0622393 0.0410202 0.0289438 0.0410259 0.0680305 0.102224 0.023498 0.0064837 0.00119316 0.000196769 0.00124396 0.00652513 0.0235383 0.102706 0.0683315 0.0411697 0.0290597 0.0411416 0.0625144 0.0874307 0.194105 0.133814 0.0827554 0.0584231 0.0827735 0.128094 0.178759 0.284541 0.198208 0.123608 0.0872051 0.123632 0.192623 0.269491 0.371677 0.259893 0.162608 0.114671 0.162651 0.254463 0.357039 0.45651 0.319949 0.200781 0.141578 0.20082 0.315229 0.443227 0.538523 0.378515 0.238317 0.168146 0.238364 0.375115 0.527825 0.614123 0.432513 0.273206 0.192567 0.273298 0.430981 0.606384 0.682063 0.48096 0.304847 0.214902 0.304884 0.482178 0.677019 0.745357 0.527047 0.333334 0.235703 0.333334 0.527047 0.745357 0.849838 0.666668 0.527047 0.471406 0.527047 0.666668 0.849838 0.771846 0.612136 0.48097 0.428658 0.482118 0.612162 0.783509 0.688764 0.547322 0.432503 0.384702 0.43089 0.547337 0.703419 0.59843 0.477482 0.378465 0.336075 0.375006 0.477484 0.616346 0.501846 0.402269 0.319913 0.283213 0.31508 0.402254 0.522314 0.403708 0.325548 0.259744 0.229287 0.254267 0.325516 0.42534 0.303926 0.247157 0.198 0.174088 0.192358 0.247136 0.326096 0.200684 0.165483 0.133591 0.116561 0.127852 0.165455 0.223351 0.0970582 0.0822891 0.0680618 0.0579233 0.0622283 0.0822721 0.119589 0.0302708 0.00334354 0.00647858 0.000410841 0.0063609 0.00333957 0.0302714 0.120116 0.0826379 0.06251 0.0582074 0.0683052 0.0826518 0.0976443 0.223876 0.16578 0.128084 0.116793 0.133803 0.165769 0.201166 0.326652 0.247477 0.19261 0.174316 0.198201 0.247432 0.304396 0.425846 0.325817 0.25447 0.229469 0.259889 0.325812 0.404158 0.522599 0.402427 0.315219 0.283341 0.319988 0.402476 0.502242 0.616548 0.477582 0.375085 0.336171 0.378556 0.477665 0.598782 0.703609 0.547452 0.43092 0.384755 0.432589 0.5475 0.689084 0.783674 0.612236 0.482131 0.428718 0.481001 0.612257 0.772008 0.849838 0.666668 0.527047 0.471405 0.527047 0.666668 0.849838 1 0.849838 0.745357 0.707108 0.745357 0.849838 1 0.913414 0.783446 0.681939 0.643172 0.676928 0.771856 0.913429 0.816885 0.703383 0.613923 0.577659 0.606134 0.688737 0.816858 0.711986 0.616328 0.538346 0.505182 0.527519 0.598383 0.711905 0.599947 0.522302 0.456265 0.426079 0.44289 0.501788 0.599868 0.485137 0.425388 0.371282 0.344755 0.356623 0.403656 0.485059 0.367849 0.32615 0.284059 0.261582 0.269018 0.303882 0.367776 0.246482 0.223394 0.193666 0.175266 0.178332 0.200641 0.246442 0.122924 0.119616 0.102236 0.0872503 0.0868547 0.0969753 0.122857 0.00531871 0.0300922 0.0234256 0.00169005 0.0234062 0.0301408 0.0053651 0.12371 0.0976419 0.0874442 0.0878245 0.102744 0.120166 0.123728 0.247134 0.201207 0.178798 0.175741 0.194161 0.223914 0.247098 0.368459 0.304446 0.269492 0.262076 0.284544 0.326696 0.368467 0.485659 0.404193 0.357054 0.345205 0.37173 0.425897 0.485745 0.600387 0.502226 0.443249 0.426405 0.456553 0.522681 0.600496 0.712415 0.598713 0.527786 0.505411 0.538542 0.616638 0.712502 0.817293 0.689057 0.606343 0.577862 0.61412 0.70365 0.81735 0.913707 0.772046 0.677072 0.643363 0.682117 0.783698 0.913689 1 0.849838 0.745357 0.707108 0.745357 0.849838 1 0.800374 0.658439 0.573321 0.572275 0.656774 0.800352 0.723456 0.593474 0.51731 0.518385 0.59766 0.723477 0.638923 0.523452 0.457369 0.460158 0.529891 0.638925 0.548176 0.447955 0.392197 0.396231 0.456342 0.548137 0.453328 0.369316 0.323854 0.3288 0.378995 0.453255 0.356564 0.289361 0.254179 0.259469 0.299611 0.356494 0.256867 0.207109 0.182358 0.187776 0.217611 0.256817 0.154283 0.12259 0.108464 0.114001 0.133304 0.154272 0.0511455 0.0390099 0.0345913 0.0401376 0.0494468 0.0511415 0.0516708 0.0498769 0.0407014 0.0351495 0.0395135 0.0516918 0.154744 0.133775 0.114562 0.108959 0.123014 0.154769 0.257307 0.218129 0.188352 0.182866 0.207524 0.257324 0.356971 0.300153 0.260049 0.254693 0.289777 0.357046 0.453648 0.379434 0.329299 0.324262 0.369661 0.453804 0.548426 0.456706 0.396596 0.392505 0.448252 0.548594 0.639149 0.530202 0.460465 0.457626 0.523732 0.639294 0.723631 0.597885 0.518628 0.517538 0.593725 0.723777 0.80052 0.656922 0.572461 0.573483 0.658619 0.80057 0.656797 0.478523 0.355995 0.355695 0.478542 0.658455 0.597642 0.433922 0.321919 0.321607 0.433924 0.593465 0.529892 0.383797 0.28472 0.285328 0.383779 0.523435 0.456378 0.329401 0.244146 0.245412 0.329354 0.447904 0.37907 0.2726 0.201755 0.203454 0.272524 0.369246 0.299691 0.214609 0.158614 0.160474 0.214526 0.289301 0.217661 0.154624 0.114009 0.115924 0.154572 0.207069 0.133328 0.0927396 0.0679906 0.0699332 0.092714 0.122558 0.0494419 0.0307234 0.0218686 0.0238461 0.0306921 0.0389738 0.0394794 0.0309512 0.0240339 0.0220728 0.0309982 0.0498799 0.122989 0.0929392 0.0701327 0.0681763 0.0929955 0.133797 0.20747 0.154817 0.116158 0.114236 0.154888 0.218164 0.289696 0.214811 0.160713 0.158867 0.214881 0.300195 0.369544 0.272746 0.203646 0.201933 0.272852 0.379508 0.44809 0.3295 0.245524 0.244289 0.329631 0.456794 0.523568 0.383865 0.285421 0.284845 0.384033 0.530302 0.593548 0.433984 0.321647 0.322032 0.434123 0.597944 0.658597 0.478589 0.355749 0.356046 0.478638 0.657022 0.572248 0.355652 0.159246 0.159247 0.355956 0.573266 0.51833 0.321556 0.144133 0.144135 0.321882 0.51729 0.460103 0.285302 0.127586 0.127568 0.284662 0.457323 0.396202 0.245404 0.109575 0.109546 0.244083 0.392146 0.3288 0.203458 0.0906991 0.0906691 0.201702 0.323815 0.259498 0.160502 0.0714606 0.0714164 0.158563 0.254151 0.187798 0.115936 0.0515105 0.0514747 0.113957 0.182337 0.113995 0.0699283 0.0308965 0.0308602 0.0679338 0.108443 0.0401152 0.0238347 0.0102392 0.0102197 0.0218095 0.0345502 0.0351749 0.022081 0.0102615 0.0102777 0.0240857 0.040691 0.10897 0.0681708 0.0309058 0.030938 0.0701883 0.114573 0.182828 0.114189 0.0515199 0.0515879 0.116214 0.188358 0.254603 0.158778 0.071459 0.0715743 0.16079 0.260064 0.324188 0.201847 0.0906905 0.0907858 0.203721 0.329328 0.392454 0.244201 0.109545 0.109664 0.245662 0.396677 0.457532 0.284709 0.127542 0.127684 0.285557 0.460534 0.517419 0.321914 0.144109 0.144212 0.321748 0.518671 0.573406 0.355993 0.159241 0.159293 0.355792 0.572506 0.573253 0.355913 0.15917 0.159172 0.355642 0.572187 0.517215 0.32183 0.144041 0.144043 0.321505 0.518317 0.457245 0.284621 0.127517 0.127494 0.285249 0.460097 0.392081 0.244057 0.109511 0.10948 0.245347 0.396183 0.323754 0.201663 0.0906319 0.0906043 0.203405 0.328771 0.254106 0.158536 0.0714 0.0713528 0.160419 0.259446 0.1823 0.113942 0.0514453 0.0513884 0.115831 0.18774 0.108397 0.0679093 0.0308143 0.030781 0.0698275 0.113934 0.0345349 0.0217904 0.0101624 0.0101473 0.0237522 0.040059 0.0407548 0.0241196 0.0103335 0.010358 0.0221658 0.0352509 0.114598 0.0701979 0.030971 0.0310121 0.0682578 0.109041 0.188337 0.116175 0.0515713 0.0516451 0.114308 0.182921 0.259996 0.160702 0.0714826 0.071578 0.158913 0.254741 0.329228 0.203614 0.0906918 0.0907864 0.202006 0.324346 0.396555 0.245519 0.109559 0.109646 0.244363 0.392581 0.460414 0.28539 0.127546 0.127665 0.284891 0.457703 0.518554 0.321586 0.144089 0.144181 0.322055 0.517554 0.572408 0.355727 0.159222 0.159291 0.35609 0.573507 0.658425 0.478465 0.355606 0.355883 0.47847 0.656639 0.593336 0.43384 0.321489 0.321809 0.433817 0.597592 0.523313 0.383708 0.285262 0.284583 0.383677 0.529824 0.447808 0.329318 0.245355 0.244016 0.32927 0.456296 0.369185 0.272502 0.203407 0.201632 0.272454 0.378946 0.289245 0.214502 0.160444 0.158494 0.214449 0.299548 0.207 0.154531 0.115873 0.113895 0.15446 0.217528 0.122474 0.0926627 0.0698774 0.067872 0.0925865 0.133183 0.0389196 0.0306291 0.0237825 0.0217523 0.0305722 0.0493179 0.049967 0.0310547 0.0221608 0.0241541 0.0311002 0.039646 0.133858 0.0930582 0.0682408 0.0702527 0.093095 0.12313 0.218189 0.154904 0.114253 0.116238 0.154957 0.207623 0.300196 0.214867 0.158827 0.160745 0.214923 0.289849 0.379448 0.272783 0.201898 0.203651 0.272868 0.369735 0.456668 0.32953 0.244248 0.245584 0.329643 0.448332 0.530194 0.383901 0.28477 0.28548 0.384038 0.523771 0.597901 0.434004 0.321958 0.321681 0.434127 0.593769 0.656907 0.478599 0.356028 0.355795 0.478656 0.65862 0.800274 0.656656 0.572138 0.573184 0.658437 0.800244 0.72337 0.597604 0.518287 0.517187 0.593302 0.723337 0.638848 0.529844 0.460091 0.45722 0.523278 0.6388 0.548093 0.456328 0.396178 0.392059 0.447762 0.548031 0.453249 0.379011 0.32877 0.323741 0.369132 0.453161 0.356493 0.299641 0.259471 0.254085 0.289193 0.356391 0.256795 0.217627 0.187785 0.182284 0.206939 0.256711 0.154213 0.133294 0.113999 0.108383 0.122426 0.154121 0.0510569 0.0493928 0.0401228 0.0345098 0.0388494 0.0509652 0.0517751 0.0395251 0.0352154 0.0407551 0.0500015 0.0518425 0.154838 0.123051 0.109008 0.114631 0.133912 0.154897 0.257386 0.207531 0.18287 0.188379 0.218229 0.257443 0.357054 0.289769 0.254638 0.260018 0.300225 0.357125 0.453754 0.369649 0.324234 0.329238 0.379531 0.453841 0.548498 0.448175 0.39246 0.396592 0.456761 0.548629 0.639204 0.523616 0.457569 0.460447 0.530271 0.639331 0.723711 0.59364 0.517471 0.518625 0.597953 0.7238 0.800556 0.658637 0.573449 0.572458 0.657003 0.80058 
