# vtk DataFile Version 5.1
vtk output
ASCII

DATASET UNSTRUCTURED_GRID
POINTS 931 float
1.02778 0 0.0277767
1.02778 0 0.194444
1.02778 0 0.361111
1.02778 0 0.527778
1.02778 0 0.694445
1.02778 0 0.861112
1.02778 0 1.02778
1.02804 0.155436 -0.0457371
1.03406 0.162789 0.125458
1.04168 0.159906 0.29706
1.04901 0.156427 0.469083
1.0557 0.154625 0.642321
1.06137 0.155476 0.815791
1.06638 0.161207 0.986523
0.989201 0.304032 -0.11119
1.00854 0.316983 0.0606747
1.03232 0.314276 0.234063
1.05431 0.308332 0.407753
1.07392 0.305357 0.581783
1.09173 0.308524 0.754898
1.10944 0.321585 0.923684
0.919526 0.445531 -0.173594
0.956639 0.465564 -0.00685894
1.0023 0.465493 0.162943
1.04557 0.459123 0.334443
1.08482 0.45617 0.506271
1.12128 0.462483 0.676
1.15634 0.483101 0.838928
0.823001 0.583964 -0.2267
0.880525 0.611508 -0.0704743
0.951246 0.615682 0.0892552
1.02058 0.610728 0.2526
1.08468 0.608737 0.417397
1.14357 0.618117 0.579346
1.19929 0.645892 0.732159
0.707067 0.723911 -0.264333
0.786796 0.758861 -0.123872
0.883339 0.767589 0.0195506
0.979623 0.764389 0.168665
1.06962 0.763487 0.320731
1.1524 0.775612 0.46995
1.23034 0.809622 0.608596
0.575209 0.86687 -0.281179
0.676463 0.908465 -0.161801
0.796995 0.921705 -0.041013
0.918975 0.920705 0.0870623
1.03466 0.921152 0.21994
1.14168 0.93564 0.350937
1.24118 0.974791 0.470856
0.433509 1.01357 -0.271264
0.553258 1.06049 -0.177457
0.69354 1.07784 -0.0850113
0.837601 1.07932 0.0151953
0.976516 1.08126 0.121871
1.10584 1.09785 0.228172
1.22455 1.14129 0.324225
0.291758 1.16572 -0.234298
0.42502 1.21606 -0.168458
0.578863 1.23622 -0.107458
0.738795 1.23966 -0.0395296
0.895381 1.24285 0.0356174
1.04233 1.26091 0.11213
1.17601 1.30779 0.179758
0.155704 1.32331 -0.170805
0.296848 1.37563 -0.134171
0.457868 1.3974 -0.106006
0.626674 1.40211 -0.0725313
0.794194 1.40586 -0.0317054
0.952715 1.42443 0.0120922
1.09569 1.47335 0.0492366
0.031469 1.48608 -0.0812117
0.175049 1.53906 -0.0740167
0.336473 1.56165 -0.0789955
0.506981 1.56691 -0.080615
0.678235 1.57045 -0.0751669
0.841548 1.58856 -0.0653832
0.987804 1.63816 -0.0591824
-0.0742752 1.65388 0.0327573
0.0661476 1.7066 0.0107676
0.22136 1.72926 -0.0264676
0.38633 1.73441 -0.0624853
0.553936 1.73699 -0.0920236
0.715123 1.75358 -0.115895
0.858755 1.80262 -0.140027
-0.155386 1.82659 0.167514
-0.0236665 1.87825 0.117731
0.119042 1.90028 0.0506973
0.271315 1.90491 -0.0173947
0.428039 1.90604 -0.0802768
0.5808 1.92003 -0.136496
0.716131 1.96743 -0.18987
-0.206863 2.005 0.314558
-0.0888245 2.0547 0.239843
0.0362576 2.07527 0.147229
0.169935 2.07894 0.051247
0.309457 2.07815 -0.0413813
0.447443 2.0889 -0.12725
0.569201 2.1335 -0.207392
-0.22739 2.18937 0.465199
-0.127298 2.23627 0.369906
-0.0235207 2.25473 0.256829
0.0874988 2.25688 0.138443
0.204611 2.25399 0.0211973
0.321724 2.26124 -0.0905707
0.425541 2.30153 -0.194135
-0.214418 2.37918 0.616503
-0.135993 2.42243 0.504831
-0.0562664 2.43843 0.37598
0.0291424 2.43897 0.240019
0.119509 2.43428 0.102639
0.210779 2.43768 -0.0310838
0.292385 2.4721 -0.155363
-0.163725 2.57662 0.759042
-0.109449 2.61363 0.634205
-0.0554517 2.62578 0.492212
0.00185229 2.62468 0.341563
0.0624299 2.61893 0.188719
0.124194 2.61893 0.0386078
0.179073 2.64605 -0.103336
-0.0778385 2.78346 0.880994
-0.0480894 2.8085 0.74365
-0.0237871 2.81462 0.585548
0.00394727 2.81258 0.423897
0.0341287 2.80772 0.261938
0.0650089 2.8061 0.101832
0.0910688 2.82337 -0.0535183
0.0277767 3 0.972224
0.0277767 3 0.805556
0.0277767 3 0.638889
0.0277766 3 0.472222
0.0277766 3 0.305555
0.0277766 3 0.138888
0.0277766 3 -0.0277788
0.861112 0 0.0277767
0.861112 0 0.194444
0.861112 0 0.361111
0.861112 0 0.527778
0.861112 0 0.694445
0.861112 0 0.861112
0.861112 0 1.02778
0.853614 0.153907 -0.0153101
0.860831 0.160485 0.153701
0.868118 0.161662 0.320705
0.875854 0.161608 0.487846
0.88391 0.16172 0.655784
0.89205 0.162751 0.824245
0.90119 0.166404 0.992061
0.815507 0.299156 -0.050629
0.836153 0.312899 0.116025
0.858761 0.317358 0.281119
0.881514 0.318624 0.446203
0.904231 0.320079 0.611998
0.926978 0.323944 0.778228
0.950345 0.332744 0.943462
0.754798 0.441032 -0.0821287
0.793006 0.462138 0.0779455
0.835833 0.470872 0.23698
0.87953 0.474635 0.396477
0.922688 0.478243 0.557028
0.964144 0.485385 0.717534
1.00557 0.500066 0.876053
0.676018 0.583874 -0.105823
0.73495 0.612164 0.0431006
0.80119 0.625329 0.191299
0.868944 0.631497 0.340884
0.934958 0.637217 0.491732
0.997819 0.647676 0.642295
1.06121 0.668428 0.790249
0.586175 0.729876 -0.116868
0.667218 0.764397 0.0162641
0.757129 0.781438 0.148592
0.848753 0.790096 0.282757
0.938122 0.798181 0.418539
1.0239 0.812039 0.554303
1.11071 0.838629 0.686884
0.487301 0.8788 -0.112863
0.589129 0.91848 -0.000266428
0.700582 0.939081 0.11094
0.814334 0.950354 0.224115
0.926207 0.960829 0.339372
1.03441 0.97798 0.454875
1.14356 1.00987 0.566528
0.382658 1.03145 -0.0912278
0.502083 1.07496 -0.00292686
0.631427 1.09827 0.0829465
0.763926 1.11146 0.170612
0.895157 1.12382 0.260375
1.02261 1.14355 0.350694
1.15015 1.18006 0.435876
0.278745 1.18852 -0.0508155
0.411055 1.23445 0.0107416
0.553463 1.25932 0.0684737
0.699712 1.27366 0.127295
0.845216 1.28718 0.188055
0.986934 1.30868 0.249518
1.12716 1.34858 0.305011
0.180016 1.34977 0.00888571
0.320184 1.39681 0.0422996
0.469873 1.42249 0.0700813
0.623851 1.4373 0.0981892
0.777599 1.45122 0.127928
0.927664 1.47366 0.158328
1.07464 1.51569 0.182591
0.0915691 1.51499 0.0877985
0.234024 1.56222 0.0923837
0.384856 1.58803 0.0896176
0.540219 1.6027 0.0863867
0.695866 1.61632 0.0844544
0.848053 1.63874 0.0833354
0.995815 1.68166 0.0762363
0.0186378 1.68421 0.184332
0.157732 1.73077 0.160419
0.303644 1.75596 0.127774
0.453959 1.76999 0.0937742
0.60507 1.7827 0.060738
0.753336 1.80413 0.028835
0.895552 1.84704 -0.00871195
-0.0346314 1.85776 0.29576
0.0956282 1.90284 0.244777
0.230827 1.92682 0.184083
0.37011 1.93969 0.121019
0.510847 1.9508 0.0585586
0.649317 1.97048 -0.00262209
0.780165 2.01255 -0.0687745
-0.0641985 2.03645 0.415585
0.0522594 2.07916 0.340395
0.171736 2.10126 0.254845
0.294985 2.11229 0.165971
0.420043 2.12132 0.0771801
0.542924 2.13895 -0.0105562
0.657725 2.17896 -0.102261
-0.0678989 2.22041 0.536929
0.0304811 2.25984 0.441615
0.130304 2.27926 0.335615
0.233428 2.28791 0.225256
0.338128 2.29462 0.113987
0.440905 2.30958 0.00389456
0.535865 2.34602 -0.109031
-0.0441938 2.40981 0.657801
0.0325233 2.44485 0.546348
0.109583 2.46074 0.423538
0.189045 2.46657 0.294825
0.269782 2.47058 0.16473
0.349679 2.48173 0.0364826
0.421553 2.51319 -0.0940089
0.00975191 2.60732 0.77225
0.0621766 2.63475 0.646642
0.113647 2.64519 0.508047
0.166312 2.64808 0.363899
0.220432 2.64948 0.219054
0.275263 2.65622 0.0766393
0.322578 2.68038 -0.0682171
0.0906749 2.81674 0.875738
0.116088 2.82694 0.72963
0.141163 2.82958 0.576643
0.165713 2.8306 0.421367
0.190784 2.83122 0.26602
0.219201 2.83361 0.11328
0.244197 2.84557 -0.044599
0.194444 3 0.972224
0.194444 3 0.805556
0.194444 3 0.638889
0.194444 3 0.472222
0.194444 3 0.305555
0.194444 3 0.138888
0.194444 3 -0.0277788
0.694445 0 0.0277767
0.694445 0 0.194444
0.694445 0 0.361111
0.694445 0 0.527778
0.694445 0 0.694445
0.694445 0 0.861112
0.694445 0 1.02778
0.67522 0.155474 0.0139651
0.684983 0.16053 0.1813
0.694153 0.162466 0.346395
0.703529 0.16343 0.510895
0.713281 0.164024 0.675541
0.723889 0.164578 0.841192
0.73354 0.163749 1.00703
0.634944 0.30454 0.008039
0.65961 0.315587 0.171404
0.684446 0.320993 0.332155
0.709938 0.324182 0.492325
0.735896 0.326252 0.653338
0.761393 0.328004 0.815388
0.784296 0.328006 0.977823
0.580381 0.453176 0.00683591
0.624375 0.470357 0.16219
0.670031 0.479588 0.315502
0.716383 0.484938 0.46887
0.761709 0.488748 0.622988
0.805002 0.492187 0.77817
0.846604 0.494619 0.93469
0.516051 0.604106 0.0139078
0.582638 0.626752 0.156946
0.652163 0.639472 0.298745
0.721457 0.64723 0.440826
0.788537 0.653323 0.58371
0.853639 0.659411 0.728177
0.919359 0.665724 0.874989
0.448362 0.757262 0.0312843
0.538016 0.784403 0.157212
0.630614 0.800684 0.282211
0.72266 0.811464 0.40775
0.812512 0.820342 0.53466
0.901276 0.829702 0.663606
0.992685 0.839979 0.79571
0.378554 0.912881 0.057756
0.488502 0.943676 0.162163
0.601287 0.962935 0.266038
0.713976 0.975982 0.370917
0.825141 0.987019 0.477471
0.93608 0.998899 0.586239
1.05123 1.01326 0.697001
0.308119 1.07175 0.0949797
0.434489 1.10498 0.174635
0.564164 1.12609 0.253829
0.694475 1.14056 0.334061
0.823709 1.15293 0.416161
0.953053 1.16684 0.499998
1.08729 1.18503 0.583814
0.241281 1.23391 0.144272
0.379648 1.26817 0.196884
0.521573 1.29017 0.248473
0.664553 1.30529 0.300995
0.806754 1.31844 0.355245
0.949192 1.33404 0.410304
1.09647 1.35536 0.463503
0.181273 1.39875 0.2058
0.326288 1.43316 0.229721
0.474691 1.45543 0.251986
0.624439 1.4707 0.274958
0.773845 1.48414 0.299293
0.923568 1.50067 0.323659
1.07777 1.52405 0.344442
0.131503 1.56612 0.279105
0.277289 1.60006 0.273877
0.426081 1.62207 0.266451
0.576532 1.63709 0.259208
0.727162 1.65027 0.252948
0.878339 1.66686 0.246095
1.03279 1.69153 0.233906
0.0953269 1.73628 0.362401
0.236051 1.76917 0.328786
0.379267 1.79042 0.292417
0.524368 1.8047 0.255591
0.67024 1.81698 0.219309
0.816483 1.83317 0.181712
0.964025 1.85876 0.137485
0.0749743 1.90974 0.453294
0.205148 1.94103 0.393168
0.337249 1.96097 0.329657
0.471432 1.97384 0.265076
0.606712 1.98474 0.200436
0.741674 2.00027 0.133614
0.87593 2.02635 0.059426
0.0729816 2.08659 0.54736
0.187694 2.11585 0.46382
0.303979 2.13384 0.376315
0.422531 2.14475 0.287092
0.542197 2.1539 0.197043
0.660819 2.16816 0.104329
0.776985 2.19367 0.003852
0.0910088 2.26694 0.639483
0.186358 2.29356 0.536799
0.2831 2.30882 0.429407
0.38203 2.31725 0.319239
0.482038 2.32425 0.208013
0.580906 2.33623 0.0941825
0.675222 2.36003 -0.0276622
0.128732 2.45152 0.728645
0.201971 2.47419 0.610502
0.276124 2.48564 0.485884
0.351993 2.4913 0.358031
0.429461 2.49572 0.229594
0.506048 2.50461 0.0988115
0.576258 2.52542 -0.0398273
0.184621 2.6423 0.812944
0.235185 2.65677 0.679999
0.285149 2.66286 0.540079
[...]
POINT_DATA 931
SCALARS scalars float 1
LOOKUP_TABLE default
1.02815 0.882793 0.782723 0.746391 0.782723 0.882793 1.02815 1.02912 0.876427 0.768139 0.722187 0.751047 0.847137 0.988769 0.995862 0.84422 0.737383 0.688582 0.71071 0.798283 0.930219 0.937353 0.790752 0.689386 0.641225 0.65809 0.735729 0.853538 0.85765 0.719446 0.626404 0.581328 0.593561 0.658971 0.759082 0.762751 0.63675 0.554266 0.513068 0.519725 0.570953 0.651159 0.65395 0.542633 0.47201 0.43521 0.435902 0.471566 0.529628 0.533809 0.438426 0.380612 0.349049 0.343734 0.362015 0.395205 0.410015 0.329966 0.285066 0.259539 0.248527 0.247986 0.252874 0.290927 0.224536 0.19306 0.175756 0.161648 0.141807 0.110869 0.200491 0.147761 0.131445 0.128447 0.122644 0.102192 0.0668107 0.196962 0.162112 0.155142 0.163132 0.174524 0.183754 0.20125 0.286839 0.254773 0.241734 0.248276 0.26873 0.297992 0.343065 0.409725 0.367883 0.343924 0.345348 0.370333 0.413705 0.47927 0.537441 0.482355 0.446637 0.441778 0.469297 0.524542 0.607209 0.663814 0.593695 0.544922 0.532015 0.560567 0.626437 0.725007 0.781703 0.693736 0.628568 0.605458 0.634819 0.711792 0.827662 0.885831 0.774437 0.686114 0.65283 0.685107 0.775522 0.91056 0.97262 0.817442 0.708198 0.667824 0.708198 0.817442 0.97262 0.872241 0.695001 0.562458 0.510689 0.562458 0.695001 0.872241 0.872889 0.694313 0.55655 0.494417 0.535215 0.660206 0.831288 0.844652 0.67171 0.537986 0.473191 0.504908 0.618761 0.778381 0.796929 0.633724 0.508231 0.444409 0.467336 0.566374 0.709409 0.733557 0.58411 0.470325 0.409522 0.42251 0.503625 0.626582 0.659315 0.527186 0.427343 0.370102 0.371973 0.432468 0.531893 0.574707 0.461505 0.376415 0.323375 0.314202 0.352108 0.424965 0.480853 0.38688 0.317091 0.269667 0.250649 0.265002 0.308543 0.382057 0.306294 0.252144 0.212121 0.185654 0.176254 0.188525 0.282611 0.222898 0.184336 0.15479 0.127226 0.0982938 0.0779158 0.193937 0.14479 0.121551 0.110248 0.100731 0.0891118 0.0917608 0.151318 0.103137 0.091543 0.106982 0.132583 0.162019 0.204585 0.195186 0.143481 0.127146 0.150306 0.195927 0.251778 0.322363 0.288162 0.22567 0.195364 0.212104 0.266248 0.341341 0.43546 0.39301 0.315507 0.269607 0.276688 0.33498 0.42551 0.539992 0.501299 0.40644 0.342912 0.337987 0.397978 0.501202 0.634608 0.608562 0.492253 0.406526 0.388064 0.449628 0.565382 0.717119 0.715038 0.565267 0.452796 0.420271 0.486148 0.616449 0.78487 0.828692 0.639493 0.492224 0.432121 0.492224 0.639493 0.828692 0.758695 0.545748 0.362178 0.274986 0.362178 0.545747 0.758695 0.747023 0.540188 0.36108 0.270116 0.345378 0.519521 0.724486 0.714002 0.519162 0.351332 0.263508 0.327484 0.487422 0.67965 0.667559 0.489556 0.337787 0.255771 0.305056 0.445806 0.620636 0.610127 0.453583 0.321852 0.246932 0.278781 0.395432 0.547627 0.545939 0.413901 0.303406 0.235783 0.248942 0.337208 0.462482 0.476273 0.368849 0.27875 0.218576 0.214611 0.272983 0.367498 0.400949 0.317362 0.247487 0.19622 0.178077 0.205207 0.265891 0.322252 0.261201 0.210945 0.170029 0.14257 0.139098 0.163514 0.243672 0.201698 0.169074 0.14054 0.113568 0.0907542 0.0821564 0.174194 0.142156 0.122735 0.110573 0.101933 0.0981635 0.107608 0.13911 0.0946156 0.0750024 0.0863573 0.115246 0.152555 0.200742 0.167805 0.0924046 0.0394014 0.0784818 0.146592 0.219748 0.301849 0.239888 0.141603 0.0615362 0.0928445 0.185016 0.286717 0.398777 0.326219 0.20825 0.111151 0.119893 0.223328 0.347737 0.486324 0.418561 0.280598 0.163557 0.150306 0.258933 0.402663 0.565201 0.514495 0.35351 0.212321 0.176541 0.289582 0.451513 0.634699 0.617271 0.428807 0.257861 0.189551 0.303402 0.484777 0.686975 0.733881 0.510689 0.306816 0.196419 0.306816 0.510689 0.733881 0.708198 0.473039 0.238954 0.0392839 0.238954 0.473039 0.708198 0.672204 0.447592 0.225029 0.049111 0.235514 0.458612 0.685597 0.623805 0.41542 0.210654 0.0620966 0.226478 0.434473 0.649041 0.567457 0.381428 0.200577 0.0775094 0.210286 0.397194 0.593229 0.504947 0.34662 0.194616 0.0949262 0.188445 0.346932 0.519142 0.442464 0.313974 0.191393 0.110089 0.165085 0.291085 0.434526 0.380254 0.281256 0.187305 0.122026 0.142843 0.231688 0.342146 0.317845 0.247775 0.181495 0.131442 0.125594 0.172358 0.245706 0.258701 0.215464 0.173616 0.137481 0.116473 0.121758 0.152968 0.209011 0.185644 0.162147 0.138977 0.117528 0.100198 0.0917673 0.180598 0.161905 0.147321 0.136111 0.128319 0.124194 0.126942 0.187154 0.15137 0.131174 0.129599 0.145352 0.173637 0.213005 0.227457 0.159555 0.116177 0.11963 0.165097 0.229664 0.306503 0.288564 0.186663 0.10712 0.106882 0.18469 0.2842 0.396457 0.359678 0.22799 0.110195 0.092678 0.202336 0.333751 0.477743 0.435464 0.277723 0.126194 0.0779971 0.218457 0.378826 0.551059 0.519523 0.336691 0.155462 0.0626688 0.229463 0.416341 0.612795 0.609038 0.401961 0.193691 0.048437 0.236202 0.446834 0.662944 0.708198 0.473039 0.238954 0.0392837 0.238954 0.473039 0.708198 0.733881 0.510689 0.306816 0.196419 0.306816 0.510689 0.733881 0.659371 0.449635 0.258124 0.169367 0.300579 0.504639 0.725588 0.584605 0.391068 0.211258 0.136474 0.280214 0.478333 0.691474 0.507487 0.334697 0.167889 0.096364 0.241947 0.424605 0.620672 0.432554 0.284569 0.134191 0.058108 0.199981 0.362508 0.534962 0.363979 0.243071 0.115808 0.0348631 0.157884 0.295651 0.440646 0.301848 0.21027 0.114369 0.0513246 0.121359 0.226428 0.340126 0.249502 0.189183 0.127887 0.086543 0.101924 0.161771 0.238579 0.21648 0.183686 0.149855 0.122786 0.109728 0.117496 0.146417 0.211664 0.19269 0.173584 0.155808 0.13828 0.12029 0.102926 0.236048 0.213063 0.19624 0.184516 0.175124 0.166488 0.158304 0.282285 0.242129 0.217641 0.208641 0.212643 0.227116 0.250424 0.340827 0.276713 0.237413 0.228063 0.247587 0.289702 0.34801 0.404934 0.314342 0.25529 0.242418 0.278237 0.349112 0.44242 0.471276 0.354832 0.273075 0.252939 0.304164 0.402348 0.527719 0.541576 0.400059 0.293622 0.262136 0.326299 0.45016 0.604532 0.612688 0.447718 0.315914 0.269054 0.343903 0.490622 0.668759 0.685265 0.497308 0.340491 0.274458 0.355681 0.521383 0.71846 0.758695 0.545747 0.362178 0.274986 0.362178 0.545747 0.758695 0.828692 0.639493 0.492224 0.432121 0.492224 0.639493 0.828692 0.704561 0.539921 0.414335 0.382204 0.470237 0.633919 0.834613 0.596934 0.448778 0.338274 0.322408 0.419107 0.580172 0.776649 0.497148 0.365059 0.265509 0.260026 0.359055 0.508691 0.686111 0.404179 0.288006 0.196567 0.196134 0.292032 0.426812 0.582227 0.319408 0.219374 0.134369 0.134057 0.223431 0.340002 0.47123 0.246849 0.165615 0.0904919 0.0845508 0.159536 0.251742 0.354713 0.201202 0.144902 0.0964237 0.0834532 0.118632 0.173078 0.240007 0.202946 0.168983 0.144034 0.13026 0.127235 0.130274 0.142505 0.248409 0.220255 0.202206 0.189066 0.175851 0.156014 0.122795 0.316663 0.281242 0.260429 0.247732 0.237823 0.225669 0.204764 0.39417 0.344794 0.316114 0.302868 0.300625 0.305879 0.312959 0.473489 0.407007 0.367663 0.352971 0.36011 0.385986 0.42416 0.549802 0.464772 0.412946 0.395869 0.413103 0.460875 0.530222 0.624444 0.520175 0.45384 0.432413 0.458521 0.527318 0.626396 0.695882 0.573645 0.491659 0.464034 0.498154 0.586692 0.711954 0.762288 0.622754 0.524704 0.489163 0.529316 0.634634 0.782626 0.821855 0.66486 0.549932 0.505617 0.550241 0.669351 0.834079 0.872241 0.695001 0.562458 0.510689 0.562458 0.695001 0.872241 0.97262 0.817442 0.708198 0.667824 0.708198 0.817442 0.97262 0.79646 0.680481 0.603004 0.592203 0.65638 0.782614 0.958723 0.662957 0.56477 0.505539 0.512716 0.589648 0.717383 0.881523 0.542422 0.458319 0.41164 0.429254 0.506537 0.622438 0.768781 0.425494 0.353352 0.316053 0.339117 0.412858 0.516168 0.64372 0.312251 0.249307 0.218997 0.247141 0.317421 0.405764 0.511878 0.211425 0.153345 0.128308 0.163565 0.228112 0.297088 0.376062 0.157132 0.104371 0.0866876 0.120083 0.167075 0.207236 0.248125 0.19477 0.156519 0.145299 0.155684 0.170707 0.173356 0.157916 0.287149 0.250226 0.235882 0.234165 0.233774 0.221329 0.17935 0.393699 0.349423 0.328862 0.321406 0.318831 0.312129 0.286861 0.501958 0.446833 0.418767 0.407564 0.407357 0.412852 0.413025 0.606038 0.538731 0.502495 0.488276 0.492607 0.512782 0.539773 0.702683 0.622436 0.577218 0.55977 0.56924 0.604849 0.65915 0.791562 0.698778 0.643459 0.621787 0.636149 0.686894 0.765975 0.872839 0.768103 0.702486 0.675817 0.694289 0.759004 0.861217 0.941679 0.825034 0.748312 0.716829 0.739384 0.816747 0.93747 0.994285 0.865238 0.777698 0.742262 0.769144 0.857334 0.992032 1.02815 0.882792 0.782723 0.746391 0.782723 0.882793 1.02815 
