# vtk DataFile Version 5.1
vtk output
ASCII

DATASET UNSTRUCTURED_GRID
POINTS 2025 float
0.011 0 0
0.206511 -0.0256929 -0.0484141
0.416964 -0.0713534 -0.0500597
0.615874 -0.146827 -0.0389915
0.813828 -0.239348 -0.0281027
1.0135 -0.343298 -0.0198953
1.21435 -0.457765 -0.0123516
1.41512 -0.582541 -0.00246944
1.61867 -0.710936 0.0043254
1.82301 -0.845496 0.01267
2.0299 -0.980696 0.0193209
2.24222 -1.1135 0.020846
2.45324 -1.24852 0.0270989
0.011 0.25 0
0.244151 0.238598 -0.0225565
0.475691 0.182168 -0.0225223
0.698864 0.0998115 -0.0167984
0.914966 0.000160697 -0.010836
1.12682 -0.111535 -0.00592585
1.33573 -0.23309 0.000130857
1.54292 -0.362292 0.00622722
1.75013 -0.495879 0.0120237
1.95733 -0.631647 0.0170598
2.1658 -0.767011 0.0208081
2.37515 -0.902401 0.0254893
2.58551 -1.03622 0.0285592
0.011 0.5 0
0.266647 0.486299 0.000889212
0.51858 0.426781 0.00187664
0.763074 0.341164 0.00365996
0.998257 0.236868 0.00589617
1.22562 0.119078 0.00858106
1.44581 -0.00774281 0.011174
1.66089 -0.140965 0.0148227
1.87345 -0.278067 0.018676
2.08421 -0.415863 0.0217779
2.29554 -0.553979 0.0259739
2.50774 -0.690467 0.0268368
2.71885 -0.824419 0.0306321
0.011 0.75 0
0.286673 0.722693 0.0240698
0.560397 0.660204 0.0250741
0.825552 0.572517 0.0235808
1.07828 0.465223 0.0231852
1.32028 0.344071 0.0223173
1.55225 0.213309 0.022453
1.77666 0.0766694 0.0233739
1.99508 -0.0629183 0.0242152
2.21142 -0.202748 0.0263997
2.42479 -0.340384 0.0285519
2.63637 -0.476143 0.0299357
2.84853 -0.610556 0.0315937
0.011 1 0
0.311112 0.944717 0.0415736
0.611413 0.883272 0.0463561
0.89637 0.793297 0.042775
1.16623 0.683206 0.0394229
1.42175 0.558872 0.0358894
1.66507 0.42608 0.033734
1.89729 0.287468 0.0316328
2.12136 0.146675 0.0298683
2.33943 0.00696155 0.0307444
2.55556 -0.12981 0.0310613
2.76954 -0.264551 0.033307
2.9807 -0.400759 0.0354449
0.011 0 0.25
0.213409 -0.0484103 0.228576
0.408761 -0.0926904 0.225177
0.604999 -0.16189 0.230341
0.803246 -0.249666 0.2362
1.00336 -0.351374 0.241318
1.20376 -0.464436 0.246796
1.40648 -0.585918 0.252826
1.61029 -0.714096 0.259337
1.81709 -0.846704 0.264286
2.02644 -0.981084 0.267687
2.23612 -1.11502 0.271703
2.44706 -1.24831 0.276633
0.011 0.25 0.25
0.246577 0.222364 0.239755
0.470832 0.165039 0.238549
0.689939 0.0858635 0.241891
0.905323 -0.010408 0.245778
1.11723 -0.119603 0.249364
1.32657 -0.239214 0.253549
1.53445 -0.36624 0.258585
1.74236 -0.498342 0.263041
1.95047 -0.632832 0.267682
2.15902 -0.768636 0.271437
2.36958 -0.903796 0.275795
2.58235 -1.03705 0.278506
0.011 0.5 0.25
0.264028 0.473066 0.250514
0.513973 0.411615 0.250812
0.756775 0.327526 0.252434
0.991265 0.225896 0.254454
1.21796 0.110854 0.257276
1.43817 -0.0138412 0.260087
1.65372 -0.145328 0.264011
1.86682 -0.280596 0.267529
2.07833 -0.417462 0.271749
2.29017 -0.555078 0.274637
2.5027 -0.691341 0.277395
2.71547 -0.824198 0.280926
0.011 0.75 0.25
0.280314 0.710848 0.260138
0.555148 0.646096 0.262616
0.820102 0.55938 0.263183
1.07273 0.454182 0.264008
1.31484 0.335297 0.264895
1.54694 0.206496 0.266737
1.77084 0.0718745 0.26916
1.99022 -0.0655164 0.271223
2.20651 -0.204209 0.2748
2.41995 -0.341774 0.276999
2.63127 -0.477345 0.280326
2.84239 -0.61007 0.28361
0.011 1 0.25
0.304687 0.930825 0.267079
0.605577 0.868961 0.273483
0.89153 0.780541 0.27277
1.16157 0.672438 0.2721
1.41683 0.550763 0.272235
1.65983 0.419736 0.272078
1.89206 0.283054 0.273497
2.11596 0.144919 0.275235
2.33533 0.00675462 0.277231
2.55169 -0.130039 0.279197
2.76379 -0.265799 0.283274
2.97587 -0.398489 0.284372
0.011 0 0.5
0.212697 -0.05308 0.502796
0.40671 -0.100041 0.501396
0.601213 -0.168325 0.502423
0.798942 -0.25434 0.50317
0.998264 -0.354693 0.50446
1.19899 -0.466745 0.506018
1.40171 -0.588019 0.509142
1.60631 -0.714893 0.513029
1.81293 -0.84736 0.515987
2.02134 -0.980581 0.519427
2.22994 -1.11547 0.523596
2.44169 -1.24822 0.52649
0.011 0.25 0.5
0.246457 0.219294 0.501216
0.469424 0.160097 0.501627
0.686914 0.0808037 0.502776
0.901038 -0.0140858 0.503864
1.11252 -0.122545 0.505662
1.32154 -0.241273 0.507943
1.52932 -0.367726 0.511136
1.73727 -0.498825 0.514437
1.94554 -0.633371 0.518581
2.15535 -0.768324 0.521055
2.36504 -0.903899 0.525041
2.57691 -1.03649 0.528341
0.011 0.5 0.5
0.263092 0.470675 0.500646
0.511935 0.407503 0.501926
0.753866 0.323404 0.50281
0.987413 0.222427 0.504708
1.21352 0.108308 0.506867
1.43361 -0.0159305 0.509755
1.64934 -0.146794 0.513345
1.86247 -0.281425 0.516397
2.07405 -0.418292 0.520458
2.28569 -0.554407 0.523863
2.49702 -0.691253 0.527293
2.71017 -0.823432 0.531218
0.011 0.75 0.5
0.278794 0.7082 0.500196
0.552951 0.642548 0.501377
0.81771 0.555516 0.503411
1.07019 0.451003 0.505389
1.31123 0.332831 0.507902
1.54301 0.204941 0.511258
1.76704 0.070316 0.514857
1.98577 -0.0667636 0.518547
2.20265 -0.204662 0.522167
2.41653 -0.341101 0.525437
2.62794 -0.477885 0.530309
2.84183 -0.61085 0.533329
0.011 1 0.5
0.303131 0.927087 0.498738
0.602846 0.86536 0.501837
0.888882 0.777219 0.50319
1.15911 0.66979 0.505752
1.41422 0.548281 0.508875
1.6565 0.418061 0.511432
1.88844 0.281996 0.515745
2.11204 0.143857 0.520035
2.33233 0.00608992 0.523436
2.54912 -0.13 0.527409
2.76167 -0.265926 0.532224
2.97428 -0.400063 0.535059
0.011 0 0.75
0.21427 -0.0470201 0.776186
0.406391 -0.0934066 0.778568
0.601343 -0.162645 0.77457
0.798786 -0.250293 0.769828
0.997425 -0.352106 0.767309
1.19736 -0.464918 0.765738
1.39873 -0.587133 0.765848
1.60278 -0.714226 0.766671
1.80944 -0.846169 0.767657
2.01552 -0.981025 0.771004
2.22742 -1.11462 0.773201
2.44006 -1.24819 0.776446
0.011 0.25 0.75
0.246083 0.223832 0.763742
0.469016 0.165842 0.765085
0.68683 0.0863497 0.763928
0.901421 -0.0104789 0.761867
1.11219 -0.119883 0.762028
1.32016 -0.239398 0.763059
1.5272 -0.36641 0.764003
1.73445 -0.497907 0.765605
1.94231 -0.632609 0.769011
2.15039 -0.768595 0.771682
2.36027 -0.903045 0.775954
2.57234 -1.03625 0.77875
0.011 0.5 0.75
0.263215 0.473701 0.751227
0.512019 0.412378 0.753276
0.753521 0.328406 0.753638
0.987026 0.225981 0.755296
1.21301 0.11112 0.757045
1.43215 -0.0135536 0.759712
1.64709 -0.145284 0.762669
1.85995 -0.280739 0.765328
2.07089 -0.417984 0.769602
2.28184 -0.555107 0.773255
2.49323 -0.69007 0.776928
2.70483 -0.822751 0.78138
0.011 0.75 0.75
0.278901 0.710992 0.740077
0.553408 0.647304 0.740704
0.817466 0.560127 0.743798
1.06951 0.45461 0.747243
1.31009 0.335795 0.751182
1.54163 0.207737 0.755265
1.76496 0.0726527 0.760419
1.98281 -0.065318 0.765313
2.19722 -0.203714 0.77042
2.41104 -0.341502 0.774224
2.62444 -0.476648 0.778697
2.83745 -0.609863 0.783721
0.011 1 0.75
0.302987 0.932496 0.729209
0.604296 0.871044 0.730099
0.889212 0.782107 0.734038
1.15831 0.673421 0.739683
1.4132 0.551422 0.745507
1.65519 0.420853 0.751361
1.8863 0.284583 0.758511
2.10922 0.145614 0.76491
2.32726 0.00658221 0.770064
2.54312 -0.131023 0.776026
2.75756 -0.264398 0.781206
2.96817 -0.395274 0.786889
0.011 0 1
0.203857 -0.0218263 1.05383
0.407503 -0.071442 1.05487
0.607364 -0.147155 1.04579
0.804978 -0.239813 1.03615
1.00171 -0.345901 1.02934
1.19976 -0.460937 1.02458
1.39951 -0.584128 1.02232
1.60163 -0.712997 1.02072
1.80668 -0.845441 1.02084
2.01448 -0.980188 1.02133
2.22491 -1.11507 1.02327
2.43791 -1.24755 1.02576
0.011 0.25 1
0.242064 0.237891 1.02648
0.471898 0.182442 1.02774
0.693302 0.100204 1.02432
0.907365 0.000203487 1.01998
1.11632 -0.112973 1.01832
1.3229 -0.234662 1.01775
1.52815 -0.363068 1.01743
1.73363 -0.495789 1.01772
1.93964 -0.630888 1.01988
2.1475 -0.767351 1.02175
2.35596 -0.902786 1.02592
2.56915 -1.0348 1.02846
0.011 0.5 1
0.263874 0.485221 1.00232
0.515109 0.427732 1.00366
0.757943 0.342473 1.00383
0.990539 0.238068 1.00497
1.21525 0.119867 1.00669
1.43269 -0.00682653 1.00953
1.64636 -0.140074 1.01192
1.85781 -0.27744 1.01501
2.06763 -0.415162 1.01887
2.27777 -0.553656 1.02295
2.48894 -0.690098 1.02661
2.70019 -0.822168 1.03134
0.011 0.75 1
0.284326 0.722598 0.979321
0.556944 0.662643 0.978728
0.819596 0.575119 0.983096
1.07055 0.467445 0.988766
1.31063 0.346022 0.99405
1.54058 0.215113 0.999744
1.76311 0.0783426 1.00624
1.98002 -0.0618833 1.0121
2.19387 -0.201495 1.01783
2.40704 -0.34052 1.02285
2.6193 -0.477032 1.02789
2.83238 -0.609732 1.03299
0.011 1 1
0.314476 0.949362 0.955524
0.607708 0.886464 0.95649
0.890601 0.79599 0.964389
1.15848 0.685228 0.973293
1.41257 0.56116 0.982379
1.65401 0.42854 0.991295
1.88389 0.290069 1.00095
2.10649 0.14917 1.00946
2.32276 0.00924049 1.01742
2.53614 -0.129421 1.02568
2.74787 -0.265866 1.03312
2.96171 -0.396193 1.03743
0.011 0 0.125
0.117932 -0.0194063 0.103864
0.118344 -0.0182325 -0.0349373
0.011 0.125 0
0.011 0.125 0.125
0.122888 0.12206 -0.0235552
0.228391 0.109026 -0.036551
0.131547 0.248982 -0.0160705
0.128591 0.114386 0.107563
0.011 0.125 0.25
0.13131 0.243434 0.11435
0.011 0.25 0.125
0.217418 -0.0425508 0.086683
0.235048 0.0975085 0.0981691
0.11925 -0.0284635 0.235207
0.126149 0.110013 0.238331
0.248329 0.22884 0.107315
0.132019 0.239333 0.242369
0.232153 0.0904405 0.233139
0.313552 -0.0564448 0.0858009
0.311297 -0.041006 -0.0494944
0.338483 0.0868529 -0.0347969
0.448668 0.0569287 -0.0353778
0.360368 0.214643 -0.0228237
0.339969 0.0750894 0.0974138
0.361318 0.203607 0.107391
0.411651 -0.0844075 0.0872192
0.445289 0.0451891 0.0975778
0.311668 -0.0654943 0.224894
0.33772 0.0684096 0.231341
0.473507 0.171976 0.107349
0.359762 0.196901 0.23823
0.442292 0.0378453 0.231848
0.509986 -0.116699 0.0914558
0.516331 -0.105585 -0.0436387
0.555356 0.019792 -0.0311049
0.660385 -0.0227307 -0.0273056
0.587925 0.144494 -0.0196041
0.550048 0.010037 0.10094
0.584258 0.134617 0.109782
0.608838 -0.15507 0.0950407
0.654167 -0.0311435 0.103808
0.506817 -0.124206 0.228302
0.546424 0.0034849 0.234224
0.693677 0.0919398 0.112141
0.580881 0.128293 0.240429
0.650128 -0.0371958 0.236172
0.707735 -0.197863 0.100184
0.715219 -0.190401 -0.0330324
0.764909 -0.0691856 -0.023476
0.86732 -0.119404 -0.0191869
0.807646 0.0523806 -0.0138958
0.757784 -0.0759155 0.10758
0.802095 0.045129 0.11479
0.807482 -0.244336 0.103332
0.860997 -0.12513 0.110412
[...]
POINT_DATA 2025
SCALARS Displacements float 1
LOOKUP_TABLE default
0.011 0.0699669 0.120384 0.202654 0.304527 0.417348 0.539721 0.671939 0.806761 0.947282 1.08772 1.22399 1.36326 0.011 0.0259427 0.0754936 0.159542 0.264136 0.381991 0.510257 0.64639 0.786711 0.929112 1.07072 1.2121 1.35166 0.011 0.0215785 0.0755631 0.159415 0.263204 0.381798 0.510749 0.647299 0.788512 0.931001 1.07394 1.21516 1.35428 0.011 0.051672 0.111085 0.194331 0.296248 0.412572 0.539695 0.674263 0.813294 0.953894 1.09335 1.23176 1.36933 0.011 0.0923 0.167891 0.256866 0.359924 0.474741 0.598139 0.728283 0.862429 0.997531 1.1316 1.26514 1.40134 0.011 0.064354 0.132409 0.21822 0.318175 0.429382 0.550878 0.679201 0.813568 0.951065 1.08954 1.22793 1.36555 0.011 0.0296715 0.0905555 0.174968 0.277117 0.392726 0.519058 0.652908 0.791557 0.932429 1.0744 1.21517 1.35342 0.011 0.0303729 0.0894861 0.172624 0.274279 0.390531 0.517646 0.652621 0.79207 0.933638 1.07602 1.21705 1.35478 0.011 0.050543 0.118307 0.203529 0.30495 0.420006 0.545784 0.678716 0.815851 0.955522 1.09504 1.23345 1.36958 0.011 0.0898192 0.169909 0.262129 0.365909 0.479729 0.602278 0.731263 0.863277 0.997276 1.1316 1.26631 1.39912 0.011 0.064937 0.136797 0.22467 0.324227 0.434969 0.55542 0.683491 0.816233 0.953575 1.09135 1.23097 1.36765 0.011 0.030934 0.0949742 0.180596 0.282046 0.397144 0.522742 0.656054 0.79371 0.934551 1.07527 1.21668 1.35457 0.011 0.0321211 0.0932833 0.17666 0.277898 0.393447 0.520276 0.654716 0.793605 0.93522 1.07623 1.21812 1.35516 0.011 0.0507584 0.119798 0.205962 0.307172 0.421712 0.546869 0.68006 0.817098 0.956093 1.09459 1.23431 1.37042 0.011 0.0902267 0.169436 0.262545 0.366589 0.480727 0.602724 0.731399 0.863675 0.99759 1.1314 1.26639 1.40074 0.011 0.0646004 0.13529 0.221712 0.321755 0.433673 0.554967 0.684374 0.817423 0.954152 1.09434 1.23126 1.36829 0.011 0.0298155 0.0909405 0.175971 0.278761 0.394904 0.52156 0.655591 0.793803 0.934896 1.07714 1.2174 1.35578 0.011 0.029458 0.0885031 0.171669 0.274377 0.390699 0.518107 0.653561 0.793349 0.935499 1.07768 1.21775 1.35565 0.011 0.0495515 0.116126 0.201598 0.303471 0.418542 0.543884 0.677593 0.815643 0.955392 1.09539 1.23339 1.36996 0.011 0.0882993 0.167044 0.25906 0.363073 0.477364 0.599581 0.728336 0.861468 0.996619 1.13214 1.26481 1.39612 0.011 0.074183 0.129113 0.209991 0.311208 0.426797 0.550644 0.681576 0.817003 0.954848 1.09406 1.23274 1.36857 0.011 0.0301804 0.0782516 0.162004 0.267168 0.387241 0.516313 0.652205 0.792127 0.934176 1.07691 1.21855 1.35542 0.011 0.0204024 0.0739214 0.157774 0.26215 0.381776 0.511366 0.64852 0.790479 0.933347 1.07708 1.21869 1.3561 0.011 0.0485466 0.106426 0.188978 0.291445 0.408546 0.536425 0.671814 0.812219 0.953316 1.09471 1.23429 1.37042 0.011 0.0932712 0.162433 0.250314 0.353428 0.468315 0.591914 0.722447 0.857521 0.99358 1.13029 1.2663 1.39722 0.011 0.0295513 0.0399668 0.011 0.011 0.0238317 0.0453662 0.0173825 0.0207266 0.011 0.014013 0.011 0.0658814 0.0412218 0.0325892 0.0190285 0.0276285 0.0148755 0.0423932 0.0921869 0.0904942 0.0632417 0.0923054 0.0445548 0.066927 0.0514747 0.127897 0.100573 0.0945029 0.0702885 0.0842684 0.0564828 0.106092 0.167249 0.157675 0.129948 0.174931 0.113535 0.139331 0.123308 0.211828 0.184429 0.172816 0.145565 0.168288 0.12981 0.190979 0.260275 0.250746 0.224453 0.278757 0.209244 0.23326 0.217696 0.311822 0.286531 0.266121 0.239529 0.271325 0.2238 0.292438 0.36651 0.358564 0.334942 0.394967 0.321023 0.342234 0.327938 0.423578 0.401388 0.371819 0.347703 0.38793 0.333075 0.406493 0.483577 0.476866 0.45656 0.52111 0.444605 0.46258 0.450151 0.545427 0.526579 0.488411 0.467302 0.515058 0.454478 0.530999 0.609903 0.604487 0.58735 0.655671 0.577244 0.591995 0.581503 0.675218 0.659226 0.613659 0.595785 0.649656 0.584953 0.662666 0.742289 0.738423 0.72392 0.793959 0.715701 0.727347 0.718766 0.809924 0.796946 0.745332 0.730342 0.78899 0.7214 0.7996 0.879212 0.876478 0.864423 0.935596 0.857462 0.866671 0.859505 0.948261 0.937127 0.88135 0.868967 0.930462 0.861495 0.939187 1.01825 1.01652 1.00575 1.07665 0.999673 1.00729 1.00124 1.08752 1.07757 1.01977 1.00921 1.07227 1.00291 1.07979 1.15663 1.15506 1.14618 1.21614 1.14141 1.14761 1.14277 1.22581 1.21756 1.15855 1.14933 1.21303 1.14422 1.21956 1.295 1.29365 1.28614 1.35558 1.28192 1.28701 1.28272 1.36393 1.35628 1.29652 1.28834 1.35191 1.28398 1.35762 0.011 0.011 0.00966363 0.0166881 0.0129442 0.0134982 0.011 0.014295 0.011 0.022488 0.0128445 0.0260101 0.015231 0.0262347 0.0380475 0.0696653 0.0435555 0.046892 0.0516375 0.0791416 0.0522331 0.0836193 0.0563565 0.0853668 0.109011 0.154314 0.114169 0.11809 0.122682 0.162971 0.12436 0.166906 0.12832 0.168999 0.204524 0.258925 0.208796 0.212171 0.216159 0.265959 0.217871 0.269446 0.221279 0.271057 0.316445 0.377576 0.320489 0.322719 0.326436 0.383217 0.327515 0.386508 0.330704 0.387443 0.440876 0.506744 0.444705 0.445792 0.449351 0.511151 0.449722 0.51445 0.452756 0.514625 0.574353 0.64353 0.577951 0.57794 0.581416 0.646694 0.581106 0.650066 0.584228 0.649418 0.713488 0.784598 0.717276 0.716139 0.719681 0.786858 0.718543 0.79022 0.721704 0.788925 0.855758 0.927454 0.859322 0.857508 0.860952 0.928809 0.859322 0.93209 0.862446 0.930414 0.998357 1.06995 1.00204 0.999811 1.00334 1.07152 1.00128 1.07448 1.00454 1.07282 1.14092 1.21149 1.14443 1.14191 1.14545 1.2125 1.14298 1.21547 1.14636 1.21383 1.28135 1.35106 1.28458 1.28209 1.28512 1.35129 1.28317 1.35373 1.28608 1.35197 0.011 0.011 0.0182107 0.0351232 0.0272236 0.019812 0.011 0.0256955 0.011 0.0373042 0.0186643 0.0491555 0.0243703 0.0380768 0.0586562 0.090278 0.0779298 0.0638823 0.0802134 0.0966316 0.066589 0.115125 0.0819036 0.100846 0.128858 0.172978 0.149992 0.135607 0.15538 0.179702 0.14024 0.199646 0.158815 0.184361 0.222335 0.275734 0.243035 0.228544 0.248703 0.281588 0.233076 0.301262 0.252346 0.285676 0.333005 0.393152 0.35268 0.338067 0.357682 0.397855 0.341936 0.416743 0.360921 0.401268 0.456152 0.521487 0.474635 0.460272 0.47894 0.525138 0.4634 0.542966 0.481692 0.527951 0.588661 0.657361 0.60595 0.591747 0.609234 0.660164 0.594333 0.676588 0.611338 0.662327 0.727262 0.797872 0.743176 0.72932 0.74529 0.799527 0.731233 0.814643 0.746819 0.800946 0.868548 0.939666 0.88326 0.869832 0.884514 0.940795 0.87106 0.954473 0.885456 0.941832 1.01068 1.08117 1.02371 1.01144 1.02438 1.08205 1.01247 1.094 1.02507 1.0833 1.15183 1.22152 1.16282 1.15256 1.16356 1.22211 1.15351 1.23253 1.16426 1.22322 1.29077 1.35989 1.3007 1.2912 1.30115 1.35955 1.29205 1.36929 1.3014 1.36041 0.011 0.011 0.0357131 0.0698731 0.0481298 0.0345943 0.011 0.0468755 0.011 0.0676444 0.031374 0.0879491 0.0454183 0.066498 0.101947 0.137502 0.129052 0.10216 0.127608 0.139871 0.102774 0.168825 0.128219 0.141637 0.177871 0.222453 0.210514 0.181531 0.213014 0.226827 0.184027 0.259919 0.214581 0.229647 0.271643 0.324308 0.306713 0.276231 0.310453 0.328893 0.279163 0.363444 0.312534 0.331741 0.380736 0.439709 0.415956 0.384998 0.419766 0.443588 0.387707 0.477777 0.421568 0.446079 0.501347 0.564968 0.5353 0.50495 0.538444 0.56826 0.507238 0.600558 0.539876 0.570315 0.630653 0.697403 0.662428 0.633476 0.664995 0.699971 0.635211 0.729949 0.665974 0.701503 0.765684 0.834531 0.79473 0.767577 0.796574 0.835708 0.768708 0.862848 0.796693 0.836653 0.903585 0.972661 0.929507 0.904486 0.930149 0.973393 0.905122 0.996996 0.929962 0.973725 1.04151 1.10981 1.06425 1.04186 1.06457 1.11038 1.04225 1.13125 1.06435 1.11094 1.1782 1.24617 1.19823 1.17867 1.19848 1.24698 1.17938 1.26545 1.19871 1.24779 1.31458 1.38311 1.33291 1.31505 1.33279 1.38322 1.31516 1.39994 1.33244 1.38288 0.011 0.0286895 0.011 0.0185774 0.011 0.0144978 0.011 0.0654184 0.0411194 0.0322662 0.0176985 0.0301185 0.014421 0.042293 0.0962887 0.072146 0.0585824 0.135449 0.108924 0.0969979 0.0728741 0.0937127 0.0597931 0.110526 0.176728 0.149627 0.133553 0.222207 0.195117 0.178384 0.151165 0.178827 0.135153 0.197163 0.2703 0.243698 0.227485 0.321612 0.29632 0.27219 0.245464 0.28054 0.22914 0.298105 0.375578 0.351258 0.336293 0.432358 0.409717 0.377516 0.352941 0.395653 0.33781 0.411501 0.491731 0.470233 0.457105 0.553152 0.533519 0.493447 0.471857 0.521376 0.458522 0.535209 0.616478 0.598228 0.587079 0.681205 0.664856 0.617998 0.599751 0.654654 0.588375 0.66641 0.747644 0.732171 0.723011 0.814742 0.800968 0.748944 0.733474 0.792645 0.724107 0.802096 0.883073 0.870223 0.86269 0.951783 0.940245 0.884252 0.871361 0.933198 0.863575 0.941447 1.02091 1.01004 1.00363 1.09001 1.08043 1.02194 1.01092 1.07444 1.00458 1.08108 1.1595 1.15028 1.14483 1.22867 1.22056 1.16073 1.15126 1.21527 1.14573 1.22168 1.29745 1.28925 1.28468 1.36651 1.35866 1.29861 1.29019 1.35369 1.28538 1.35934 0.011 0.0147097 0.011 0.0160547 0.011 0.0281575 0.0137262 0.0308128 0.015862 0.0283189 0.0552171 0.0588663 0.0885582 0.0559698 0.0920647 0.0593474 0.0898109 0.127992 0.131386 0.172645 0.129282 0.175613 0.132362 0.173966 0.221229 0.224189 0.274185 0.22252 0.276958 0.22521 0.275469 0.330398 0.333066 0.390084 0.331528 0.392628 0.333978 0.391162 0.452023 0.454699 0.51667 0.453079 0.519416 0.455541 0.517792 0.582943 0.585793 0.651056 0.583977 0.653945 0.586621 0.652031 0.719856 0.722852 0.790017 0.720784 0.792931 0.723645 0.790818 0.860357 0.86323 0.931425 0.86118 0.934235 0.863939 0.932283 1.00201 1.00502 1.07306 1.00277 1.07602 1.00554 1.07355 1.14349 1.14668 1.21421 1.1443 1.21703 1.14704 1.21532 1.28347 1.28635 1.35246 1.28426 1.3549 1.28662 1.35299 0.011 0.0197179 0.011 0.0244433 0.011 0.0394845 0.0187679 0.0491964 0.023899 0.038843 0.0687841 0.0825667 0.103181 0.068417 0.119397 0.0826302 0.103423 0.142779 0.160523 0.186942 0.143207 0.205343 0.160837 0.187594 0.235507 0.254363 0.288049 0.236274 0.306707 0.254829 0.28861 0.34396 0.362691 0.403184 0.34459 0.42141 0.362956 0.403757 0.465118 0.482978 0.529526 0.465602 0.546643 0.483191 0.529898 0.595666 0.612296 0.663486 0.596086 0.679447 0.612636 0.664028 0.732145 0.747635 0.801788 0.732689 0.816629 0.747932 0.802412 0.87183 0.88597 0.942548 0.872292 0.955648 0.886273 0.942917 1.01282 1.02529 1.08328 1.01302 1.09482 1.02541 1.08319 1.15354 1.16439 1.22353 1.1537 1.23354 1.16447 1.22411 1.29234 1.30182 1.3606 1.29254 1.36994 1.30241 1.36059 0.011 0.032969 0.011 0.0452501 0.011 0.0670507 0.0303142 0.0876416 0.0446639 0.0664936 0.102798 0.127624 0.142285 0.102906 0.169788 0.12802 0.142145 0.185046 0.215009 0.231075 0.185143 0.262559 0.214699 0.231072 0.280663 0.313607 0.333135 0.280685 0.366479 0.313336 0.333177 0.388979 0.422584 0.447264 0.388979 0.48038 0.422441 0.447302 0.508268 0.540955 0.571136 0.508274 0.602697 0.540619 0.571079 0.636047 0.666735 0.702216 0.635991 0.731251 0.666333 0.702198 0.769321 0.797254 0.837248 0.769292 0.86344 0.796949 0.837402 0.905537 0.930495 0.973947 0.905542 0.99736 0.930328 0.973952 1.04237 1.06467 1.11067 1.04243 1.13135 1.06462 1.11048 1.17943 1.19887 1.24788 1.17939 1.26581 1.19901 1.24801 1.31542 1.33272 1.38289 1.31571 1.39949 1.33339 1.38327 0.011 0.0294923 0.011 0.0175952 0.011 0.0143427 0.011 0.0652132 0.0407181 0.0308575 0.0170817 0.0297585 0.0134229 0.0418677 0.0968573 0.0721942 0.058754 0.13628 0.109373 0.0969393 0.0714027 0.0938886 0.0571142 0.107444 0.178043 0.150558 0.134008 0.22378 0.196231 0.17612 0.14773 0.179365 0.130947 0.193291 0.271802 0.244811 0.228124 0.323502 0.297472 0.269382 0.241853 0.281347 0.225168 0.295184 0.377573 0.352698 0.337242 0.434601 0.411344 0.375672 0.350581 0.396739 0.335069 0.409775 0.493733 0.471904 0.458268 0.555254 0.535121 0.492664 0.470574 0.522557 0.456823 0.534324 0.618605 0.599876 0.588276 0.683673 0.666795 0.618162 0.599321 0.655981 0.587548 0.666556 0.749811 0.734015 0.724309 0.816835 0.802641 0.74975 0.733767 0.793916 0.723934 0.802797 0.885069 0.871833 0.863912 0.953598 0.941663 0.885105 0.871984 0.93447 0.863955 0.942007 1.02283 1.01148 1.00499 1.09213 1.08208 1.0236 1.01228 1.07589 1.00551 1.08351 1.16141 1.15175 1.14608 1.23009 1.22145 1.1621 1.15258 1.21631 1.1469 1.22235 1.29909 1.29055 1.28566 1.36753 1.3596 1.29954 1.29131 1.35461 1.28646 1.36024 0.011 0.0143775 0.011 0.0157284 0.011 0.0278298 0.0124926 0.0303161 0.0146415 0.0256809 0.0549991 0.0583124 0.0885047 0.0521565 0.0915924 0.0553399 0.0851702 0.128053 0.130939 0.172612 0.124508 0.175236 0.127489 0.1692 0.22151 0.223928 0.274546 0.218316 0.276859 0.220894 0.272085 0.330844 0.333091 0.390535 0.328541 0.39276 0.330833 0.388636 0.452638 0.454881 0.517446 0.451024 0.519686 0.453137 0.51615 0.58375 0.586081 0.651846 0.582697 0.654342 0.584899 0.651278 0.720798 0.723386 0.790811 0.720267 0.793553 0.722817 0.790723 0.861296 0.863977 0.932367 0.861254 0.934935 0.864006 0.932545 1.00303 1.00569 1.07413 1.00344 1.07661 1.00614 1.07502 1.14456 1.14716 1.21531 1.14514 1.21751 1.14757 1.21543 1.28433 1.28668 1.35344 1.28499 1.35528 1.28684 1.35395 0.011 0.0191382 0.011 0.0236279 0.011 0.03901 0.0177114 0.0486029 0.0228339 0.0368139 0.0679575 0.0816977 0.102458 0.0651395 0.118621 0.0800385 0.0992039 0.142015 0.159533 0.186265 0.13856 0.20446 0.156747 0.182972 0.234974 0.253472 0.287608 0.231942 0.305903 0.25068 0.284913 0.34365 0.361874 0.402874 0.341193 0.420661 0.359437 0.400725 0.464792 0.482166 0.529169 0.462827 0.545881 0.480095 0.527305 0.595492 0.611772 0.66342 0.593988 0.678876 0.610049 0.66225 0.732249 0.747207 0.802064 0.731403 0.816373 0.746096 0.80153 0.872102 0.885799 0.942813 0.871873 0.955565 0.885116 0.942853 1.01309 1.02515 1.08349 1.01328 1.09477 1.02523 1.08424 1.15366 1.1643 1.22361 1.15388 1.23344 1.1644 1.22345 1.29231 1.30213 1.36078 1.29239 1.37004 1.30182 1.36077 0.011 0.0319462 0.011 0.0435713 0.011 0.0664095 0.0287537 0.0866481 0.0420836 0.0652341 0.101764 0.126381 0.141276 0.100652 0.168857 0.126221 0.139056 0.183831 0.213842 0.229901 0.181536 0.261546 0.212037 0.227105 0.279491 0.312288 0.33205 0.276772 0.365256 0.309761 0.329473 0.38795 0.421462 0.446321 0.385364 0.479183 0.418972 0.443999 0.507245 0.539819 0.569923 0.504975 0.601425 0.537499 0.567881 0.634971 0.665444 0.701012 0.633101 0.729895 0.663365 0.699416 0.768378 0.79598 0.836469 0.767006 0.862443 0.794488 0.835379 0.904813 0.929691 0.973635 0.903948 0.996841 0.928565 0.973307 1.04232 1.06453 1.11073 1.04221 1.13134 1.06431 1.11126 1.17924 1.19875 1.24729 1.17934 1.26521 1.19866 1.24688 1.31531 1.33249 1.38281 1.31463 1.39893 1.33093 1.38126 0.011 0.0310517 0.011 0.0176159 0.011 0.0139159 0.011 0.0659241 0.0420954 0.041566 0.0256706 0.0294802 0.0156156 0.0483045 0.0952705 0.0691875 0.0533313 0.132009 0.102956 0.0963759 0.0667191 0.085857 0.0481184 0.0977207 0.171323 0.142458 0.124915 0.216673 0.187591 0.16522 0.134686 0.170263 0.116814 0.179943 0.264649 0.236768 0.219659 0.31735 0.290412 0.257695 0.229348 0.274017 0.212481 0.283889 0.372225 0.346733 0.33082 0.430551 0.406582 0.366761 0.341148 0.391587 0.325554 0.402376 0.490477 0.468046 0.453927 0.552932 0.53221 0.486913 0.464307 0.519165 0.450425 0.529459 0.616971 0.597651 0.585543 0.682549 0.66506 0.614788 0.595417 0.65397 0.583358 0.66343 0.749104 0.732843 0.722725 0.816838 0.802186 0.748069 0.731622 0.793038 0.721397 0.801592 0.885326 0.87177 0.863369 0.954146 0.942088 0.884926 0.871335 0.934458 0.862836 0.942013 1.02394 1.01235 1.00526 1.09345 1.08311 1.02383 1.01226 1.07661 1.00531 1.08333 1.16293 1.15318 1.14722 1.23168 1.22298 1.1633 1.15368 1.2174 1.1477 1.2238 1.30027 1.2917 1.28669 1.36842 1.36031 1.30076 1.2923 1.35525 1.28724 1.36031 0.011 0.0123625 0.011 0.0136417 0.011 0.0235474 0.0099832 0.025353 0.0122364 0.0183447 0.0473768 0.0501777 0.0794871 0.0390448 0.0823935 0.0426673 0.0703501 0.118537 0.121275 0.163316 0.109704 0.165996 0.11304 0.154887 0.212999 0.215275 0.267083 0.205467 0.269194 0.208038 0.260287 0.324315 0.326221 0.385114 0.318638 0.386908 0.320535 0.380406 0.448045 0.449684 0.513564 0.44393 0.515239 0.445494 0.5102 0.580549 0.582285 0.649432 0.577647 0.651303 0.579278 0.647113 0.71882 0.720952 0.789538 0.716903 0.791871 0.719069 0.788324 0.860423 0.862809 0.931928 0.859375 0.934292 0.8617 0.93121 1.00304 1.00541 1.07463 1.00261 1.07693 1.00518 1.0746 1.14521 1.14752 1.21583 1.14549 1.21777 1.1479 1.21642 1.28515 1.28708 1.35367 1.28567 1.35556 1.28755 1.35404 0.011 0.0176146 0.011 0.0223443 0.011 0.0360624 0.0187263 0.0477753 0.0285722 0.0314866 0.0613304 0.0768884 0.0944032 0.0553781 0.111852 0.0739088 0.0862779 0.133137 0.151617 0.177597 0.125378 0.196232 0.145058 0.169374 0.226498 0.245331 0.279738 0.219104 0.298188 0.238362 0.272758 0.336586 0.354692 0.396653 0.33052 0.414162 0.348791 0.391162 0.459184 0.47624 0.524205 0.454322 0.540693 0.471475 0.520243 0.591273 0.607071 0.659729 0.587551 0.67486 0.603534 0.656806 0.729407 0.743863 0.79997 0.726949 0.813688 0.741665 0.798376 0.870629 0.883725 0.941675 0.869198 0.954191 0.882399 0.940911 1.01266 1.02456 1.08371 1.01229 1.09479 1.02413 1.08356 1.15384 1.16436 1.22369 1.15409 1.23342 1.16474 1.22425 1.29239 1.30192 1.36096 1.2929 1.36967 1.30251 1.36127 0.011 0.0307196 0.011 0.0411186 0.011 0.0668044 0.0377793 0.0880124 0.054132 0.0682524 0.0984717 0.123811 0.135923 0.0971279 0.164732 0.124366 0.131655 0.177235 0.208516 0.222489 0.171638 0.255445 0.204392 0.216188 0.272049 0.305966 0.324788 0.265565 0.35898 0.300375 0.318476 0.381138 0.415347 0.439765 0.375078 0.473342 0.409844 0.434314 0.501303 0.5342 0.564627 0.496138 0.596389 0.529476 0.560143 0.630159 0.660611 0.696764 0.626043 0.725833 0.656782 0.69342 0.764914 0.792589 0.833533 0.761979 0.859491 0.789906 0.831474 0.902552 0.927352 0.971844 0.900578 0.995156 0.925197 0.970596 1.04133 1.06327 1.11043 1.04015 1.13083 1.06186 1.10995 1.17895 1.19814 1.2469 1.17882 1.26469 1.19775 1.24813 1.31445 1.33067 1.38129 1.31526 1.39623 1.33162 1.38206 
SCALARS weights float 1
LOOKUP_TABLE default