# vtk DataFile Version 5.1
vtk output
ASCII

DATASET UNSTRUCTURED_GRID
POINTS 6253 float
0 0 0
0.128252 -0.0164502 -0.0373353
0.272953 -0.0343149 -0.0465027
0.411941 -0.0682357 -0.0429011
0.549785 -0.111622 -0.0368311
0.687893 -0.161912 -0.0306221
0.82679 -0.217727 -0.0250251
0.966612 -0.278195 -0.0201825
1.10738 -0.342621 -0.0160394
1.24908 -0.410381 -0.0124946
1.39172 -0.480877 -0.00946275
1.53529 -0.553521 -0.00688599
1.67979 -0.62776 -0.00471726
1.82522 -0.703079 -0.00295027
1.97155 -0.779016 -0.00156431
2.1187 -0.855174 -0.000536571
2.26663 -0.931191 0.000117133
2.41517 -1.00683 0.00046078
2.56402 -1.08206 0.000693942
0 0.166667 0
0.149886 0.162948 -0.0239538
0.301094 0.139046 -0.0290452
0.450719 0.102568 -0.0272724
0.597823 0.0563939 -0.0237163
0.743212 0.003119 -0.0198678
0.887708 -0.0556337 -0.0162762
1.03185 -0.118833 -0.0131131
1.17593 -0.185696 -0.0103903
1.32017 -0.255556 -0.00805823
1.46467 -0.327795 -0.00607852
1.60956 -0.401838 -0.00440697
1.75491 -0.477152 -0.00301864
1.9008 -0.553252 -0.0018957
2.04728 -0.629719 -0.00102572
2.19437 -0.706173 -0.000407882
2.34207 -0.782328 1.21097e-07
2.49035 -0.857989 0.000236218
2.63907 -0.933102 0.000497269
0 0.333333 0
0.161261 0.332347 -0.0115798
0.321927 0.307965 -0.0136021
0.480628 0.269922 -0.0129909
0.636399 0.222035 -0.0113015
0.78952 0.166786 -0.00937559
0.94056 0.105868 -0.00755754
1.09006 0.0404877 -0.00595668
1.23846 -0.0284342 -0.0045985
1.38609 -0.100144 -0.00345971
1.53324 -0.173971 -0.00252301
1.68014 -0.249334 -0.00175616
1.82697 -0.32571 -0.00114313
1.97392 -0.402621 -0.000669513
2.12109 -0.479677 -0.000329144
2.26859 -0.556552 -0.000107037
2.41651 -0.632984 7.59848e-06
2.56489 -0.708795 7.47176e-05
2.71369 -0.783801 0.000198484
0 0.5 0
0.169566 0.497044 0.000912478
0.338799 0.471989 0.000948234
0.50634 0.433044 0.000724881
0.670642 0.384124 0.000796535
0.831532 0.327601 0.00100271
0.989348 0.265185 0.00118918
1.14458 0.198195 0.00129947
1.29771 0.127675 0.00132251
1.44919 0.054484 0.00126941
1.59939 -0.0206614 0.0011655
1.74868 -0.0971356 0.00101993
1.89735 -0.174414 0.000847697
2.04565 -0.252032 0.000661709
2.19381 -0.329619 0.000470476
2.342 -0.406867 0.00027323
2.49034 -0.483537 7.23747e-05
2.63893 -0.559465 -0.000108874
2.78789 -0.634415 -0.000248588
0 0.666667 0
0.17733 0.658448 0.01304
0.355238 0.63131 0.014623
0.53148 0.591699 0.0138038
0.704047 0.542248 0.0125832
0.872492 0.484956 0.0112648
1.03699 0.421538 0.00992406
1.19797 0.353408 0.00859302
1.35592 0.281721 0.00730247
1.51135 0.207424 0.00606598
1.66476 0.131298 0.00490851
1.81657 0.0539922 0.00384404
1.96719 -0.0239462 0.00288196
2.11697 -0.102071 0.00202592
2.26621 -0.180018 0.00128206
2.41515 -0.257494 0.00066441
2.56398 -0.334278 0.000145743
2.71285 -0.41023 -0.000293027
2.86194 -0.485196 -0.000683698
0 0.833333 0
0.186352 0.815645 0.0239845
0.374149 0.786117 0.0270847
0.559021 0.746187 0.0262605
0.739505 0.696415 0.0240127
0.915176 0.638591 0.0213274
1.08609 0.57446 0.0185444
1.25261 0.505532 0.0158227
1.41523 0.433043 0.0132318
1.57451 0.358011 0.0108193
1.73101 0.281265 0.00861463
1.88526 0.203468 0.00662043
2.03775 0.125173 0.00485448
2.18891 0.0468266 0.00332567
2.33912 -0.0312275 0.00203273
2.48872 -0.108711 0.00098968
2.63798 -0.18543 0.000175381
2.78708 -0.261277 -0.000448521
2.93619 -0.33631 -0.000969908
0 1 0
0.198457 0.965331 0.0323444
0.398047 0.937347 0.0392526
0.591524 0.897092 0.0383597
0.779778 0.84673 0.0351246
0.962432 0.788247 0.0310788
1.13946 0.723471 0.0268927
1.31119 0.65395 0.0228154
1.47813 0.580966 0.0189625
1.64092 0.505561 0.015391
1.8002 0.428576 0.0121434
1.95657 0.350696 0.0092327
2.1106 0.272448 0.00666535
2.2628 0.194266 0.00445765
2.41364 0.116468 0.00262026
2.56354 0.0393 0.00114423
2.71286 -0.0370763 6.4186e-05
2.86191 -0.112621 -0.000656931
3.01088 -0.187601 -0.00114338
0 0 0.166667
0.138431 -0.0302073 0.145363
0.272282 -0.0500373 0.136739
0.407368 -0.0812264 0.137391
0.544073 -0.121702 0.141175
0.682194 -0.169629 0.145541
0.821578 -0.223641 0.149556
0.962062 -0.282729 0.153
1.10353 -0.346087 0.155899
1.24591 -0.412986 0.158336
1.38917 -0.482768 0.160398
1.5333 -0.554825 0.162136
1.6783 -0.628582 0.163587
1.82416 -0.70351 0.164771
1.97086 -0.779163 0.165697
2.11833 -0.85511 0.166362
2.26645 -0.93102 0.1668
2.41505 -1.00661 0.167033
2.56385 -1.08182 0.167192
0 0.166667 0.166667
0.154942 0.152939 0.153224
0.301614 0.126949 0.147255
0.447176 0.091286 0.147539
0.592583 0.0469629 0.149992
0.737698 -0.00445571 0.152872
0.882579 -0.0616303 0.155538
1.02735 -0.123538 0.157819
1.17213 -0.189354 0.159737
1.31702 -0.258345 0.161339
1.46213 -0.329864 0.162682
1.60756 -0.403305 0.163802
1.7534 -0.478121 0.164727
1.89971 -0.553825 0.165473
2.04655 -0.629981 0.166044
2.19394 -0.706213 0.166455
2.34185 -0.782224 0.166709
2.49024 -0.857796 0.166867
2.63898 -0.932821 0.166998
0 0.333333 0.166667
0.16296 0.324344 0.160097
0.321501 0.29759 0.157254
0.477845 0.25955 0.157229
0.63243 0.212797 0.158476
0.785287 0.158989 0.16
0.936566 0.0994635 0.161411
1.08653 0.0353137 0.162598
1.23546 -0.0325547 0.163572
1.38363 -0.103366 0.164359
1.53127 -0.176436 0.164994
1.67862 -0.251154 0.165508
1.82586 -0.326984 0.165915
1.97314 -0.403455 0.166221
2.1206 -0.480162 0.166443
2.26835 -0.556763 0.16658
2.41644 -0.632995 0.16665
2.5649 -0.708658 0.16668
2.71374 -0.783553 0.166719
0 0.5 0.166667
0.168675 0.490184 0.167062
0.337307 0.462504 0.166712
0.503939 0.423175 0.166584
0.667718 0.374984 0.166757
0.828509 0.319623 0.16703
0.986518 0.258445 0.167262
1.14209 0.19262 0.167402
1.29562 0.123143 0.167453
1.4475 0.0508646 0.167437
1.59809 -0.0234877 0.16737
1.74773 -0.0992832 0.167271
1.8967 -0.175976 0.167153
2.04527 -0.253108 0.167017
2.19364 -0.330297 0.166885
2.34199 -0.407225 0.166746
2.49045 -0.483659 0.16661
2.63912 -0.559412 0.166484
2.78811 -0.634259 0.166384
0 0.666667 0.166667
0.174291 0.652231 0.173675
0.352785 0.622406 0.17557
0.529295 0.582165 0.175464
0.701947 0.533192 0.17478
0.870506 0.476874 0.173947
1.03521 0.414573 0.173083
1.19645 0.34754 0.172219
1.3547 0.276874 0.17137
1.51044 0.203492 0.170551
1.66413 0.12818 0.169781
1.8162 0.0515876 0.169066
1.96705 -0.0257338 0.168414
2.117 -0.103334 0.167839
2.26638 -0.180841 0.167339
2.41541 -0.257964 0.166924
2.5643 -0.334491 0.166578
2.71321 -0.410263 0.166294
2.86231 -0.485158 0.166059
0 0.833333 0.166667
0.181565 0.80921 0.179235
0.370864 0.777321 0.183555
0.556955 0.736755 0.183825
0.738027 0.687427 0.18246
0.914009 0.630489 0.180674
1.08516 0.567392 0.178807
1.2519 0.499504 0.176988
1.41475 0.428004 0.175263
1.57426 0.353883 0.173655
1.73098 0.277957 0.172178
1.88542 0.200898 0.170847
2.03806 0.123252 0.169659
2.18933 0.0454654 0.168633
2.33961 -0.0321175 0.167767
2.48923 -0.109221 0.167068
2.63847 -0.185666 0.166531
2.78755 -0.261348 0.166129
2.93665 -0.336314 0.165808
0 1 0.166667
0.193962 0.956639 0.18389
0.394275 0.927447 0.191482
0.589237 0.88738 0.191694
0.778342 0.837795 0.189773
0.961428 0.780287 0.187127
1.13872 0.716546 0.184346
1.31066 0.64804 0.181631
1.47782 0.576023 0.179069
1.64083 0.501512 0.176693
1.8003 0.425346 0.174527
1.95684 0.348202 0.17258
2.11101 0.270615 0.170864
2.2633 0.192997 0.169386
2.4142 0.115685 0.168151
2.5641 0.0389005 0.167177
2.71338 -0.0372086 0.166457
2.86239 -0.11263 0.165962
3.01134 -0.187563 0.165605
0 0 0.333333
0.138433 -0.0354485 0.324706
0.272386 -0.0581287 0.319438
0.406584 -0.0891538 0.319055
0.542531 -0.128391 0.320628
0.680275 -0.174958 0.322748
0.819608 -0.227795 0.324785
0.960234 -0.285947 0.326555
1.10194 -0.348566 0.328041
1.24459 -0.414868 0.329289
1.38812 -0.484171 0.33033
1.53251 -0.555822 0.331207
1.67774 -0.629243 0.331936
1.8238 -0.703902 0.332529
1.97065 -0.779338 0.332996
2.11823 -0.85512 0.333331
2.26641 -0.930911 0.333548
2.41503 -1.00645 0.333676
2.56381 -1.08163 0.333746
0 0.166667 0.333333
0.155693 0.149258 0.327724
0.302141 0.120997 0.324165
0.446417 0.0848984 0.323885
0.590784 0.041197 0.324958
0.735412 -0.00927622 0.326391
0.880224 -0.0655176 0.327763
1.02516 -0.126617 0.328941
1.17022 -0.191756 0.329928
1.31542 -0.260188 0.330742
1.46085 -0.33124 0.331417
1.60656 -0.404292 0.331977
1.75266 -0.478786 0.332434
1.8992 -0.554229 0.332804
2.04623 -0.630175 0.333087
2.19376 -0.706249 0.333286
2.34178 -0.782147 0.33341
2.49021 -0.857652 0.333486
2.63895 -0.932685 0.333532
0 0.333333 0.333333
0.163055 0.321614 0.330493
0.32143 0.292959 0.328894
0.476946 0.254167 0.328631
0.630789 0.207566 0.329171
0.783276 0.154363 0.329941
0.934509 0.0955761 0.330672
1.08462 0.0321434 0.33129
1.2338 -0.0350896 0.331787
1.38225 -0.105352 0.332183
1.53017 -0.177946 0.332496
1.67778 -0.25227 0.332744
1.82525 -0.327766 0.332939
1.97273 -0.403961 0.333084
2.12036 -0.480441 0.333188
2.26824 -0.55687 0.333248
2.41641 -0.632975 0.333281
2.56493 -0.708567 0.333292
2.71377 -0.78347 0.33329
0 0.5 0.333333
0.168079 0.487963 0.333525
0.336456 0.458494 0.333293
0.502763 0.418286 0.333191
0.66625 0.370024 0.333277
0.826906 0.315064 0.33343
0.98494 0.25449 0.333557
1.14066 0.189309 0.333631
1.29439 0.120437 0.333655
1.4465 0.0487027 0.333637
1.59732 -0.0251676 0.333591
1.74717 -0.100549 0.333528
1.89633 -0.176889 0.333459
2.04505 -0.253727 0.333383
2.19356 -0.330671 0.333301
2.342 -0.407408 0.333227
2.49053 -0.483699 0.333157
2.63924 -0.559367 0.333087
2.78823 -0.634226 0.333032
0 0.666667 0.333333
0.17312 0.650005 0.336359
0.351208 0.618425 0.33738
0.527818 0.577372 0.337499
0.700593 0.528308 0.337247
0.869258 0.472324 0.336849
1.03408 0.410558 0.336414
1.19547 0.344123 0.335971
1.3539 0.274037 0.33553
1.50982 0.201196 0.335105
1.66369 0.126366 0.3347
1.81593 0.0501997 0.334326
1.96692 -0.0267523 0.333987
2.11699 -0.104039 0.33368
2.26645 -0.181286 0.333422
2.41556 -0.2582 0.333206
2.56449 -0.334574 0.333028
2.71343 -0.410258 0.332889
2.86253 -0.485158 0.332779
0 0.833333 0.333333
0.180088 0.806183 0.338613
0.368812 0.772793 0.341034
0.55523 0.731736 0.341587
0.736691 0.682496 0.341029
0.912941 0.625945 0.340161
1.08429 0.563375 0.339217
1.25119 0.496065 0.338288
[...]
POINT_DATA 6253
SCALARS scalars float 1
LOOKUP_TABLE default
0 0.0560374 0.0835808 0.119378 0.165763 0.219787 0.279344 0.343252 0.410734 0.481175 0.55401 0.628699 0.704726 0.78161 0.858929 0.936329 1.01348 1.09022 1.16659 1.49012e-08 0.029482 0.0514385 0.0853291 0.132144 0.187788 0.249583 0.316004 0.386059 0.458996 0.534164 0.610977 0.688897 0.767445 0.846201 0.924803 1.00297 1.08054 1.15748 0 0.0128174 0.0309623 0.0675655 0.115893 0.172469 0.235225 0.302759 0.37403 0.448207 0.524563 0.602472 0.681379 0.760777 0.840259 0.91948 0.998171 1.07615 1.15324 0 0.00424002 0.0285547 0.0672592 0.115947 0.172411 0.235059 0.302615 0.374028 0.448406 0.524991 0.603107 0.682182 0.761706 0.841269 0.920529 0.999218 1.07715 1.15407 0 0.0187427 0.0440878 0.0824729 0.130521 0.186223 0.248102 0.314936 0.385676 0.459423 0.535394 0.612916 0.691398 0.770345 0.849342 0.928049 1.0062 1.08362 1.16011 0 0.035716 0.0680356 0.108479 0.156935 0.212315 0.273443 0.339249 0.408796 0.481249 0.555872 0.632037 0.709182 0.786828 0.864583 0.942112 1.01917 1.09559 1.17138 0 0.0570849 0.0982546 0.142962 0.1937 0.249944 0.310872 0.375709 0.443752 0.51436 0.586945 0.660959 0.73594 0.81146 0.887178 0.9628 1.0381 1.11299 1.18765 1.49012e-08 0.0465142 0.0844198 0.126631 0.174615 0.228173 0.286605 0.349264 0.415574 0.484964 0.556875 0.630771 0.706127 0.782456 0.859351 0.936423 1.01339 1.09005 1.16643 2.10734e-08 0.0225085 0.0544097 0.094013 0.141758 0.196518 0.256965 0.322035 0.390878 0.46276 0.537024 0.613067 0.69034 0.768358 0.846694 0.924982 1.00294 1.08039 1.15724 1.49012e-08 0.0117347 0.0388098 0.0776135 0.125571 0.180966 0.242377 0.308633 0.378765 0.451944 0.527445 0.604618 0.682895 0.761781 0.84085 0.919746 0.998201 1.07601 1.15299 1.49012e-08 0.0100267 0.0377063 0.0769256 0.12502 0.180442 0.241932 0.308362 0.378741 0.452194 0.527961 0.605367 0.683823 0.76283 0.841967 0.920883 0.999318 1.07707 1.15388 1.49012e-08 0.0177659 0.049159 0.0898669 0.138297 0.193536 0.254622 0.320562 0.390406 0.463309 0.538502 0.615322 0.693186 0.771601 0.850149 0.928493 1.00638 1.08361 1.16003 1.49012e-08 0.0310142 0.0695067 0.113427 0.163189 0.218747 0.279507 0.344693 0.413515 0.485218 0.559115 0.634591 0.711107 0.788196 0.865474 0.942616 1.01939 1.09564 1.17136 1.49012e-08 0.0540542 0.097947 0.145852 0.198282 0.255148 0.316073 0.380572 0.448094 0.518096 0.590041 0.663422 0.737796 0.812773 0.888006 0.963235 1.03826 1.11301 1.18762 0 0.0461321 0.0853617 0.129919 0.17904 0.2327 0.290697 0.352741 0.418414 0.487204 0.558587 0.632012 0.706965 0.782966 0.859595 0.936473 1.01331 1.08991 1.16627 1.49012e-08 0.0213293 0.0560599 0.0982165 0.14687 0.201476 0.261317 0.325666 0.393809 0.465059 0.538773 0.614345 0.691221 0.768913 0.846985 0.925076 1.0029 1.08026 1.15712 0 0.0125877 0.042326 0.0825893 0.130851 0.18587 0.246626 0.312172 0.381634 0.454216 0.529186 0.605911 0.683807 0.762373 0.841181 0.919879 0.998187 1.07592 1.1529 0 0.0121209 0.0416228 0.0817608 0.129977 0.185047 0.245972 0.311778 0.381555 0.454457 0.529726 0.606699 0.684782 0.763475 0.842349 0.92106 0.999344 1.077 1.15383 0 0.0181217 0.0516053 0.09362 0.142511 0.197666 0.258384 0.323838 0.393174 0.465578 0.540311 0.616713 0.694208 0.772305 0.850586 0.928714 1.00644 1.08358 1.16 0 0.0307433 0.0705917 0.115934 0.166477 0.222248 0.282871 0.347735 0.416157 0.487438 0.560918 0.636002 0.712157 0.788934 0.865932 0.942863 1.01947 1.09563 1.17134 0 0.0550474 0.098528 0.147289 0.200466 0.257705 0.318685 0.383033 0.450292 0.519976 0.591583 0.664634 0.738696 0.813382 0.888366 0.963408 1.0383 1.11299 1.18762 0 0.0465457 0.0857709 0.130846 0.180338 0.234052 0.29193 0.353781 0.419237 0.487829 0.559032 0.632297 0.70712 0.783009 0.859539 0.936353 1.01314 1.08971 1.16606 1.49012e-08 0.0213175 0.056596 0.0994258 0.148384 0.202976 0.262644 0.326762 0.394671 0.465713 0.53924 0.614653 0.691396 0.768975 0.846957 0.924974 1.00274 1.08007 1.15693 0 0.0128846 0.0433093 0.0840383 0.132436 0.187364 0.247925 0.313242 0.382481 0.454858 0.529654 0.606225 0.68399 0.76245 0.841168 0.91979 0.998045 1.07574 1.15272 0 0.0126602 0.0427087 0.0831676 0.13147 0.186451 0.247199 0.312807 0.382384 0.455099 0.530202 0.607027 0.684982 0.763566 0.842353 0.920988 0.999218 1.07684 1.15366 0 0.0184097 0.0523758 0.0947337 0.143781 0.198923 0.259525 0.324822 0.393988 0.466224 0.5408 0.617062 0.694431 0.772417 0.850606 0.928656 1.00632 1.08343 1.15985 0 0.0310009 0.0710692 0.116695 0.167458 0.2233 0.283875 0.348637 0.416924 0.488061 0.561401 0.636348 0.712384 0.789049 0.865958 0.942807 1.01936 1.09549 1.1712 0 0.055693 0.0988034 0.147746 0.20111 0.258451 0.319439 0.383733 0.450907 0.520481 0.591973 0.664913 0.738869 0.813455 0.888363 0.963327 1.03818 1.11284 1.18747 0 0.0463033 0.0850838 0.129739 0.178823 0.232424 0.290374 0.352381 0.418028 0.486808 0.558181 0.631599 0.706546 0.782545 0.859162 0.936031 1.01285 1.08943 1.16576 1.49012e-08 0.0216021 0.0558551 0.097949 0.146569 0.201142 0.260959 0.325289 0.393419 0.464666 0.538374 0.61394 0.690814 0.768498 0.846564 0.924646 1.00245 1.07979 1.15663 0 0.0125685 0.0421749 0.0823375 0.130534 0.185518 0.246258 0.311797 0.381254 0.453828 0.5288 0.605518 0.683407 0.761969 0.840767 0.919451 0.997747 1.07545 1.15242 0 0.012124 0.0415541 0.0815707 0.129709 0.184732 0.245631 0.311428 0.381199 0.454094 0.529356 0.60632 0.684395 0.763079 0.841943 0.920639 0.998911 1.07655 1.15335 0 0.0183108 0.0516695 0.0935086 0.142315 0.197416 0.2581 0.323533 0.392856 0.465247 0.539965 0.616357 0.693838 0.771923 0.850189 0.928301 1.006 1.08312 1.15952 0 0.0311182 0.0707566 0.115882 0.166353 0.222071 0.282649 0.347486 0.415884 0.487143 0.560604 0.635666 0.711803 0.788557 0.865543 0.942451 1.01904 1.09518 1.17087 0 0.0553896 0.0984158 0.147255 0.2004 0.257588 0.318519 0.382828 0.450059 0.519714 0.591297 0.664322 0.738364 0.813025 0.88799 0.963005 1.03787 1.11254 1.18714 0 0.0465247 0.0842151 0.126303 0.174191 0.227605 0.285926 0.348521 0.4148 0.484173 0.556078 0.629962 0.705307 0.781625 0.8585 0.935558 1.0125 1.08912 1.16543 1.49012e-08 0.0231339 0.0540096 0.0934641 0.141142 0.195835 0.256233 0.321273 0.390101 0.461975 0.536228 0.612262 0.689528 0.767537 0.845853 0.924125 1.00206 1.07946 1.15628 0 0.0119905 0.0385631 0.0770644 0.124904 0.180248 0.241635 0.30788 0.378008 0.451179 0.52667 0.603833 0.6821 0.760974 0.840023 0.918897 0.997327 1.0751 1.15203 0 0.0101539 0.0375638 0.076504 0.124432 0.179782 0.24124 0.307659 0.378027 0.451469 0.527217 0.604605 0.683045 0.762036 0.841149 0.920043 0.998452 1.07616 1.15291 0 0.0182432 0.04921 0.0896106 0.137853 0.193003 0.254041 0.319945 0.389766 0.46264 0.537806 0.614599 0.692439 0.770826 0.849346 0.927663 1.00551 1.0827 1.15906 0 0.0319441 0.0697234 0.113289 0.162898 0.218362 0.279054 0.344187 0.412963 0.484628 0.558482 0.633919 0.710396 0.787446 0.864684 0.941789 1.01852 1.09472 1.17039 0 0.0548748 0.0979755 0.145875 0.198161 0.254899 0.315737 0.380167 0.447628 0.517573 0.589464 0.6628 0.737122 0.812049 0.887236 0.962412 1.03738 1.11206 1.18665 0 0.0562031 0.0848979 0.119764 0.165229 0.21883 0.278242 0.342104 0.409579 0.480027 0.55286 0.627541 0.703561 0.780428 0.857732 0.935098 1.01223 1.08892 1.16523 1.49012e-08 0.0313243 0.0513707 0.0847405 0.131247 0.186729 0.248457 0.314849 0.384895 0.457825 0.532991 0.609797 0.687705 0.766239 0.844974 0.923548 1.00169 1.0792 1.15599 0 0.0135872 0.030765 0.066744 0.114866 0.17137 0.234098 0.301619 0.372885 0.447052 0.523397 0.601293 0.68018 0.759558 0.839022 0.918211 0.996868 1.07479 1.15169 0 0.00451578 0.0283 0.0665148 0.115006 0.171401 0.234019 0.301559 0.372956 0.447312 0.523872 0.601965 0.681009 0.760508 0.840043 0.919265 0.997918 1.0758 1.15253 0 0.0193557 0.0440893 0.0819422 0.129785 0.1854 0.247227 0.314018 0.384718 0.458421 0.534351 0.611828 0.690274 0.76918 0.848129 0.926796 1.0049 1.08226 1.15859 0 0.0366733 0.0681569 0.108115 0.156418 0.211709 0.272754 0.338494 0.407972 0.480359 0.554921 0.631021 0.708104 0.785693 0.863389 0.940861 1.01785 1.09419 1.16984 0 0.0606589 0.0984655 0.142728 0.193383 0.249528 0.310354 0.375089 0.443039 0.513553 0.586045 0.659978 0.73487 0.810321 0.885961 0.961496 1.03672 1.1115 1.18599 7.45058e-09 0.0236307 0.0321005 7.45058e-09 1.05367e-08 0.0228133 0.0419006 0.0166386 0.0171455 1.666e-08 0.011996 1.666e-08 0.0494851 0.0348675 0.024517 0.0157786 0.0246901 0.0105047 0.0330217 0.0653263 0.0689894 0.0525504 0.0661072 0.0388757 0.0500379 0.0372648 0.0839513 0.0668812 0.0642575 0.0493028 0.0528231 0.0374151 0.0677925 0.102529 0.0998788 0.0813785 0.100254 0.0663096 0.08446 0.0699699 0.123755 0.104972 0.104465 0.0868018 0.0902088 0.0729115 0.10834 0.14631 0.141228 0.122056 0.146631 0.107239 0.127284 0.11262 0.170866 0.152024 0.149665 0.131108 0.1375 0.116753 0.156073 0.196939 0.191705 0.173044 0.20155 0.158889 0.178293 0.164094 0.224418 0.206413 0.200554 0.18227 0.192565 0.168204 0.210271 0.253295 0.248688 0.23115 0.26241 0.217859 0.235717 0.22233 0.28323 0.266471 0.256632 0.2393 0.253562 0.225963 0.269832 0.314384 0.31055 0.294407 0.32777 0.282125 0.298174 0.285799 0.346395 0.331056 0.317255 0.301206 0.319208 0.288844 0.333853 0.379448 0.376352 0.361683 0.39673 0.350479 0.364703 0.353425 0.413216 0.399328 0.381818 0.367185 0.388586 0.355907 0.401591 0.44785 0.445412 0.432191 0.468594 0.422069 0.434558 0.424385 0.483078 0.470598 0.449749 0.436542 0.460942 0.426361 0.472384 0.519007 0.517141 0.505295 0.542753 0.496212 0.507099 0.497986 0.555411 0.54425 0.520479 0.508642 0.535615 0.499517 0.54562 0.592369 0.590984 0.580399 0.618642 0.57228 0.58173 0.573594 0.629661 0.61971 0.593459 0.582889 0.612006 0.57475 0.620723 0.667388 0.666417 0.656964 0.695744 0.649718 0.657895 0.650644 0.705325 0.696445 0.668162 0.658728 0.689574 0.651478 0.697161 0.743565 0.742944 0.734491 0.773568 0.728014 0.735092 0.728618 0.781907 0.773972 0.744068 0.73565 0.767835 0.729187 0.774442 0.820453 0.820107 0.81253 0.851705 0.806726 0.812859 0.807067 0.859002 0.851879 0.820732 0.8132 0.846363 0.807414 0.852154 0.897653 0.897526 0.890684 0.929784 0.88545 0.890812 0.885589 0.936226 0.929783 0.897766 0.890984 0.924798 0.885774 0.929912 0.974833 0.974841 0.968623 1.00751 0.963871 0.968614 0.96387 1.01328 1.00741 0.974833 0.968664 1.00286 0.963935 1.00744 1.05172 1.05182 1.04611 1.0847 1.04176 1.04602 1.04167 1.09 1.08456 1.05168 1.046 1.08035 1.04165 1.08454 1.12824 1.12835 1.12304 1.1614 1.119 1.12291 1.11886 1.16641 1.16124 1.12819 1.12287 1.15722 1.1188 1.1612 0 7.45058e-09 0.012009 0.0208498 0.00747686 0.00833863 1.49012e-08 0.00536306 7.45058e-09 0.0169611 0.00715352 0.0114643 0.00460461 0.0163207 0.0276745 0.0395073 0.0189927 0.0279646 0.0213996 0.0422753 0.0292505 0.035312 0.0237784 0.0449229 0.0549545 0.0742868 0.0474003 0.0594383 0.052807 0.0797017 0.0630112 0.0731715 0.0568625 0.0838197 0.0967722 0.121864 0.0903665 0.10225 0.0960431 0.127332 0.106566 0.121193 0.100425 0.131623 0.149024 0.178097 0.143134 0.154117 0.148215 0.182879 0.158255 0.177058 0.152299 0.186769 0.208561 0.240527 0.203026 0.212903 0.207318 0.2445 0.216522 0.239047 0.210872 0.24782 0.273489 0.307668 0.268332 0.277059 0.271866 0.310884 0.280085 0.305873 0.274847 0.313625 0.342574 0.378487 0.33786 0.345451 0.340721 0.38104 0.347917 0.376518 0.34316 0.383257 0.414928 0.452188 0.410688 0.417197 0.412958 0.454175 0.419167 0.450147 0.414917 0.455924 0.489813 0.528079 0.486044 0.491557 0.487809 0.529586 0.493098 0.526039 0.489349 0.530937 0.566572 0.605558 0.563257 0.567878 0.564587 0.606652 0.569045 0.603544 0.565766 0.607665 0.644637 0.684079 0.641732 0.645569 0.642692 0.684822 0.64642 0.682108 0.643563 0.68555 0.723496 0.76315 0.720952 0.72411 0.721596 0.763609 0.7247 0.761229 0.722202 0.764096 0.802687 0.842351 0.800439 0.803043 0.800834 0.842585 0.803418 0.840485 0.801229 0.842885 0.881817 0.921332 0.879836 0.881981 0.880029 0.921397 0.88219 0.919528 0.880252 0.921551 0.960586 0.999825 0.958816 0.960609 0.958861 0.99977 0.960688 0.998091 0.958955 0.999822 1.03876 1.07765 1.03717 1.03869 1.03711 1.07752 1.03869 1.07597 1.03711 1.0775 1.11622 1.1547 1.11473 1.11607 1.11458 1.1545 1.11602 1.15296 1.11453 1.15445 0 7.45058e-09 0.00363864 0.00537636 0.00207097 0.00223889 1.49012e-08 0.001681 7.45058e-09 0.00710781 0.00275597 0.00747031 0.00297241 0.00936079 0.0134413 0.0269521 0.0143315 0.0181181 0.0191798 0.0324104 0.0214189 0.0338197 0.0223543 0.0364227 0.0445983 0.0651086 0.0464412 0.0503405 0.0520446 0.0709299 0.0545996 0.0726595 0.0560657 0.0753403 0.0883674 0.113842 0.0903842 0.0938939 0.0957505 0.119177 0.0982611 0.120901 0.0998761 0.123379 0.141295 0.170513 0.143178 0.146182 0.147954 0.175118 0.150199 0.176733 0.15179 0.178854 0.201224 0.233353 0.202923 0.205375 0.207022 0.237209 0.208868 0.238725 0.210402 0.240399 0.26662 0.30103 0.268183 0.270062 0.271618 0.304199 0.273006 0.305659 0.2745 0.306854 0.336304 0.3725 0.337793 0.339115 0.340625 0.375061 0.34154 0.376505 0.343027 0.37723 0.409339 0.446901 0.410799 0.411587 0.413087 0.448928 0.413545 0.45038 0.415048 0.450665 0.484918 0.523487 0.486372 0.486676 0.488182 0.525051 0.488229 0.526517 0.48975 0.52641 0.562345 0.601608 0.563806 0.563683 0.565196 0.602775 0.564882 0.604246 0.566413 0.603809 0.641015 0.6807 0.642469 0.641986 0.643495 0.681521 0.64288 0.68298 0.644414 0.682275 0.720392 0.760252 0.721829 0.721059 0.722542 0.760791 0.721694 0.762223 0.723207 0.761314 0.800017 0.839856 0.801421 0.80043 0.801879 0.84016 0.800853 0.84155 0.802323 0.840499 0.879515 0.919165 0.880869 0.879727 0.881121 0.919297 0.879976 0.920624 0.881388 0.919477 0.958577 0.997928 0.959871 0.958635 0.959964 0.997918 0.958749 0.999175 0.960093 0.99799 1.03698 1.07594 1.03821 1.03693 1.03818 1.07582 1.03694 1.077 1.0382 1.07582 1.11454 1.15297 1.11567 1.11439 1.11554 1.15276 1.11436 1.15382 1.11552 1.15275 0 7.45058e-09 0.0057987 0.0112507 0.00991072 0.0049344 1.49012e-08 0.00796389 7.45058e-09 0.0123116 0.00487551 0.0176779 0.00747502 0.0130198 0.0207068 0.0348655 0.0292963 0.0240767 0.0309165 0.0391204 0.0261542 0.0468429 0.0320895 0.0421512 0.0526144 0.0731468 0.0618198 0.0574023 0.0656327 0.0781399 0.0608571 0.0865664 0.0684355 0.0818816 0.0962595 0.121473 0.105338 0.101132 0.109728 0.126281 0.10495 0.134768 0.113108 0.130028 0.148681 0.17758 0.157415 0.153162 0.161667 0.181885 0.15682 0.190173 0.165055 0.185329 0.208055 0.239899 0.216376 0.211986 0.220217 0.243621 0.215264 0.251596 0.223341 0.246639 0.272989 0.307171 0.280881 0.27634 0.284223 0.310312 0.279172 0.317928 0.28698 0.312885 0.342327 0.378342 0.349793 0.34512 0.352626 0.380936 0.34751 0.388178 0.354987 0.383082 0.415093 0.452503 0.42214 0.417373 0.424491 0.454604 0.419344 0.46146 0.42646 0.456355 0.490448 0.528884 0.497092 0.492269 0.49899 0.530538 0.49386 0.537003 0.500598 0.531936 0.567672 0.606801 0.57392 0.569081 0.575406 0.608066 0.57033 0.614137 0.576682 0.609147 0.646132 0.685681 0.651989 0.647181 0.653108 0.686597 0.648133 0.692278 0.654086 0.687403 0.725285 0.765007 0.730765 0.726023 0.731562 0.765633 0.726716 0.770937 0.732282 0.766202 0.804674 0.84437 0.809783 0.805154 0.810314 0.844752 0.805627 0.849687 0.810809 0.84513 0.883918 0.923429 0.888672 0.884186 0.888978 0.923616 0.884479 0.928191 0.889292 0.923837 0.962719 1.00192 0.967121 0.962823 0.967261 1.00196 0.962974 1.0062 0.96743 1.00206 1.04085 1.07966 1.04493 1.04083 1.04494 1.07959 1.04088 1.0835 1.045 1.07961 1.11811 1.1564 1.1219 1.11801 1.12183 1.15624 1.118 1.15994 1.12184 1.15626 0 7.45058e-09 0.0140883 0.0269353 0.018947 0.0118457 1.49012e-08 0.0158707 7.45058e-09 0.0249956 0.0106231 0.0321238 0.0145102 0.0234783 0.0393118 0.0552743 0.0504692 0.039796 0.0496135 0.0570727 0.0398668 0.0685818 0.0493653 0.0583996 0.0735292 0.0942685 0.0871234 0.0763964 0.0890787 0.0978201 0.0785437 0.111158 0.0906851 0.100475 0.1173 0.142289 0.131702 0.121106 0.134988 0.146297 0.124087 0.160364 0.137525 0.149373 0.169203 0.197719 0.183765 0.173124 0.187413 0.201609 0.176262 0.215829 0.190241 0.204653 0.227809 0.259185 0.24216 0.231467 0.245706 0.262726 0.23444 0.276737 0.248487 0.265528 0.291843 0.325524 0.305754 0.295096 0.308994 0.328624 0.297777 0.342187 0.311559 0.3311 0.360225 0.395721 0.373543 0.363021 0.376388 0.398359 0.365356 0.411326 0.378654 0.40048 0.432012 0.468896 0.444638 0.434353 0.447062 0.471084 0.436327 0.483357 0.449007 0.472857 0.506379 0.544286 0.518264 0.508285 0.520265 0.546048 0.509914 0.557575 0.521883 0.547489 0.582612 0.621228 0.593726 0.584119 0.595334 0.622596 0.585425 0.633358 0.596641 0.623733 0.660095 0.699136 0.670447 0.66124 0.67168 0.70016 0.662248 0.710149 0.672695 0.701019 0.738298 0.777532 0.747896 0.739122 0.748792 0.778249 0.739869 0.787488 0.749548 0.778867 0.81677 0.856002 0.825635 0.817314 0.826247 0.856454 0.817837 0.864978 0.826772 0.856869 0.895136 0.934205 0.903317 0.895449 0.903675 0.934445 0.895787 0.94229 0.904015 0.934697 0.973094 1.01188 0.980635 0.973231 0.980803 1.01197 0.973422 1.01919 0.980996 1.0121 1.05043 1.08886 1.05738 1.05045 1.05742 1.08884 1.05053 1.09551 1.05751 1.08889 1.12701 1.16506 1.13348 1.12697 1.13345 1.16497 1.12699 1.17127 1.13349 1.16502 0 7.45058e-09 0.0235372 0.0452222 0.0303917 0.0210849 1.49012e-08 0.0284156 7.45058e-09 0.0421535 0.0192887 0.0537379 0.0277364 0.040645 0.0632818 0.0824806 0.0773322 0.061675 0.0751744 0.0824554 0.0614061 0.0976399 0.0751367 0.0828485 0.102636 0.124658 0.119786 0.103902 0.120434 0.126876 0.10509 0.144469 0.121215 0.12856 0.148473 0.173965 0.167537 0.151279 0.169811 0.177121 0.153367 0.196261 0.171452 0.179459 0.20108 0.229596 0.221106 0.2044 0.224069 0.232985 0.206884 0.25285 0.226132 0.235517 0.259503 0.290529 0.279784 0.262824 0.282899 0.293804 0.265363 0.313753 0.285069 0.296273 0.322741 0.355824 0.342753 0.325832 0.345747 0.358817 0.328235 0.378379 0.347831 0.361093 0.389907 0.424651 0.409279 0.392658 0.412004 0.427278 0.394826 0.446114 0.413909 0.429291 0.460203 0.496246 0.47868 0.462572 0.481072 0.49848 0.464457 0.516369 0.482738 0.500202 0.532922 0.56994 0.550345 0.534896 0.552374 0.571783 0.536482 0.588582 0.553772 0.573204 0.607426 0.645141 0.623704 0.609021 0.625363 0.646597 0.610307 0.662233 0.62649 0.647726 0.683168 0.721313 0.698257 0.684391 0.699559 0.722415 0.685401 0.736867 0.700422 0.723278 0.759648 0.798017 0.773551 0.760537 0.774513 0.798792 0.761285 0.812073 0.775139 0.799417 0.836453 0.874864 0.849205 0.837051 0.849867 0.875363 0.837574 0.887509 0.850279 0.87578 0.913244 0.951552 0.9249 0.913591 0.925307 0.951812 0.913922 0.962905 0.925539 0.952061 0.989737 1.02783 1.00039 0.98989 1.00058 1.02792 0.990074 1.03805 1.00069 1.02805 1.06574 1.10356 1.0755 1.06577 1.07554 1.10356 1.06586 1.11286 1.07559 1.10362 1.14122 1.17887 1.15025 1.14119 1.15021 1.17881 1.14122 1.18751 1.15024 1.17884 0 0.0218466 7.45058e-09 0.0141171 7.45058e-09 0.00942129 1.49012e-08 0.0463592 0.0310683 0.0244134 0.0144609 0.0212972 0.00909944 0.031553 0.0640746 0.0488527 0.0370286 0.0847858 0.0681876 0.0640997 0.0489247 0.0552354 0.0376147 0.0688744 0.105766 0.0883748 0.0746965 0.128488 0.110449 0.10667 0.0894141 0.0964249 0.0761268 0.112089 0.152082 0.133805 0.119555 0.177154 0.158892 0.153609 0.135561 0.144723 0.121608 0.160931 0.203307 0.185219 0.171177 0.230716 0.213074 0.20507 0.187183 0.199371 0.173332 0.215112 0.259245 0.242024 0.228681 0.288855 0.272309 0.260963 0.243893 0.259439 0.230655 0.274139 0.319524 0.303531 0.291155 0.351136 0.335914 0.321055 0.305171 0.32407 0.292847 0.33747 0.383696 0.369083 0.357791 0.417066 0.40324 0.384983 0.370451 0.392494 0.359183 0.404521 0.451255 0.438042 0.427857 0.486109 0.473666 0.452297 0.439151 0.464005 0.428967 0.474686 0.521644 0.509791 0.500672 0.557714 0.54658 0.522459 0.510657 0.537946 0.501534 0.54737 0.59433 0.583737 0.575604 0.631336 0.621409 0.594938 0.584391 0.613715 0.576253 0.621997 0.668769 0.659318 0.652081 0.706462 0.697612 0.6692 0.659791 0.690758 0.652551 0.698027 0.744466 0.736031 0.72958 0.782603 0.774701 0.74474 0.736346 0.768587 0.729897 0.774981 0.820956 0.813407 0.807639 0.859343 0.85226 0.821112 0.813603 0.846771 0.807834 0.852421 0.897855 0.891056 0.885863 0.936308 0.929908 0.89