# vtk DataFile Version 5.1
vtk output
ASCII

DATASET UNSTRUCTURED_GRID
POINTS 2025 float
0.011 0 0
0.198702 -0.0298412 -0.0499886
0.40349 -0.0822843 -0.0524552
0.595722 -0.164186 -0.0427657
0.786352 -0.263543 -0.0341818
0.977117 -0.376379 -0.0272931
1.16805 -0.500681 -0.0212391
1.35967 -0.634295 -0.0157336
1.55292 -0.774895 -0.0112486
1.74853 -0.92026 -0.0076382
1.9472 -1.06727 -0.00540501
2.14802 -1.21476 -0.00392103
2.35055 -1.36154 -0.00398759
0.011 0.25 0
0.241537 0.23396 -0.0244239
0.469915 0.170257 -0.026051
0.687738 0.0804881 -0.0220926
0.897292 -0.0276254 -0.0181757
1.10137 -0.149078 -0.014921
1.30164 -0.280906 -0.0120222
1.4996 -0.420534 -0.00969545
1.69671 -0.565573 -0.00791403
1.89387 -0.713752 -0.00655774
2.09257 -0.863005 -0.00591132
2.29368 -1.01076 -0.0061164
2.49619 -1.15699 -0.00656173
0.011 0.5 0
0.26544 0.481343 -0.00100451
0.515324 0.415073 -0.00121703
0.756427 0.321056 -0.00137293
0.986827 0.207167 -0.00138426
1.20764 0.079126 -0.00164211
1.42085 -0.0589809 -0.00223432
1.62824 -0.204301 -0.0029608
1.83159 -0.353794 -0.00368989
2.03306 -0.505157 -0.00478353
2.23416 -0.656441 -0.00594443
2.43636 -0.805455 -0.00749874
2.6397 -0.95145 -0.00850093
0.011 0.75 0
0.286886 0.717239 0.0239626
0.559178 0.647385 0.0230124
0.822312 0.550607 0.0196849
1.07209 0.432895 0.0160019
1.30937 0.30038 0.0120697
1.53571 0.15758 0.00811594
1.75292 0.00815841 0.00434581
1.96398 -0.144871 0.00056144
2.17072 -0.298505 -0.0029551
2.3751 -0.450743 -0.0061095
2.5785 -0.600253 -0.00870444
2.78242 -0.746595 -0.0106596
0.011 1 0
0.313873 0.937139 0.0426551
0.614647 0.867365 0.045219
0.898881 0.767333 0.0392067
1.16669 0.645956 0.0321229
1.41887 0.509682 0.0247759
1.65706 0.363639 0.0177548
1.88339 0.211794 0.0111111
2.10075 0.0572217 0.00442082
2.31174 -0.0967558 -0.00177361
2.51835 -0.24837 -0.00632187
2.72278 -0.397345 -0.00999621
2.92645 -0.543363 -0.0117261
0.011 0 0.25
0.20594 -0.0529749 0.228193
0.396241 -0.10317 0.223683
0.586508 -0.179216 0.227425
0.77787 -0.274186 0.231657
0.969819 -0.384076 0.235125
1.16223 -0.506018 0.238143
1.35555 -0.637352 0.240666
1.5503 -0.776597 0.242585
1.74736 -0.920524 0.244116
1.94674 -1.06707 0.245397
2.14866 -1.21407 0.245898
2.35238 -1.35996 0.245085
0.011 0.25 0.25
0.244476 0.217531 0.238679
0.465357 0.153322 0.235844
0.679796 0.0665725 0.237453
0.889243 -0.0381475 0.239378
1.09432 -0.156803 0.240865
1.29605 -0.286298 0.242179
1.49569 -0.424027 0.243143
1.69418 -0.567655 0.243868
1.89284 -0.714443 0.244136
2.09251 -0.862699 0.244332
2.29428 -1.01025 0.243971
2.49737 -1.1558 0.243433
0.011 0.5 0.25
0.263023 0.467817 0.248984
0.510864 0.399478 0.248036
0.750622 0.307021 0.247618
0.981018 0.1958 0.247448
1.2026 0.0704228 0.247105
1.41697 -0.0655664 0.246483
1.62558 -0.208941 0.245887
1.83033 -0.356733 0.245138
2.03293 -0.506743 0.244288
2.23482 -0.656735 0.243474
2.43727 -0.804906 0.242502
2.64074 -0.950688 0.24181
0.011 0.75 0.25
0.280442 0.704985 0.259096
0.55463 0.632799 0.259659
0.818086 0.536741 0.258136
1.06844 0.421227 0.255878
1.30636 0.290993 0.253605
1.53357 0.150174 0.251148
1.75189 0.00262626 0.248859
1.96401 -0.148418 0.246437
2.17129 -0.30062 0.244495
2.37618 -0.451728 0.242635
2.58029 -0.600361 0.240971
2.78411 -0.746542 0.240075
0.011 1 0.25
0.307447 0.922303 0.266214
0.60934 0.852556 0.27048
0.894868 0.754152 0.267444
1.16343 0.634871 0.263528
1.41621 0.500746 0.259432
1.65509 0.356465 0.255486
1.88255 0.206296 0.25168
2.10106 0.0537398 0.247858
2.31247 -0.0987489 0.244653
2.51971 -0.249217 0.241616
2.72416 -0.397059 0.239939
2.92838 -0.543076 0.238078
0.011 0 0.5
0.206289 -0.0579561 0.503082
0.395909 -0.109819 0.500826
0.585234 -0.184778 0.500202
0.776422 -0.27819 0.49942
0.968528 -0.386769 0.498767
1.16139 -0.507685 0.498127
1.35523 -0.638564 0.497597
1.55051 -0.777018 0.496966
1.74806 -0.92046 0.49646
1.94798 -1.06686 0.496132
2.15036 -1.21312 0.495605
2.35387 -1.35903 0.494913
0.011 0.25 0.5
0.244649 0.213854 0.500971
0.464829 0.148466 0.499724
0.678366 0.0619789 0.498984
0.887489 -0.0416786 0.498179
1.09271 -0.159194 0.49735
1.2949 -0.287845 0.496628
1.49487 -0.424866 0.496101
1.69388 -0.567978 0.495437
1.89315 -0.714585 0.494805
2.09337 -0.862136 0.494435
2.29528 -1.00922 0.493937
2.49863 -1.15472 0.493206
0.011 0.5 0.5
0.2621 0.465007 0.499473
0.509662 0.395382 0.498718
0.749175 0.302966 0.497983
0.979566 0.19248 0.497118
1.20136 0.0679567 0.496366
1.41586 -0.0672623 0.495563
1.62505 -0.209973 0.494686
1.83015 -0.357244 0.494029
2.03293 -0.506756 0.493534
2.2357 -0.656238 0.492882
2.43856 -0.804113 0.492281
2.6425 -0.949926 0.49173
0.011 0.75 0.5
0.278898 0.701774 0.49825
0.552777 0.62865 0.497474
0.816521 0.532861 0.497051
1.06706 0.417932 0.496276
1.3055 0.288419 0.495287
1.53295 0.148319 0.494346
1.75172 0.00140913 0.49353
1.96408 -0.149107 0.492602
2.17178 -0.300843 0.49205
2.37725 -0.451435 0.491132
2.5814 -0.599696 0.490611
2.78578 -0.745357 0.490113
0.011 1 0.5
0.306202 0.917767 0.49638
0.60725 0.848066 0.497113
0.893075 0.750275 0.496043
1.16207 0.631666 0.495101
1.41521 0.498357 0.494158
1.65457 0.354717 0.493187
1.88234 0.205156 0.492295
2.1011 0.0530604 0.49123
2.31303 -0.0987927 0.490425
2.52014 -0.248652 0.489792
2.72536 -0.396147 0.489211
2.92993 -0.541714 0.488214
0.011 0 0.75
0.208688 -0.0510768 0.777729
0.397433 -0.102852 0.77808
0.587786 -0.178676 0.772775
0.779487 -0.273269 0.767213
0.971633 -0.382894 0.762485
1.16404 -0.50484 0.758268
1.35751 -0.636301 0.754592
1.5526 -0.775128 0.751245
1.7495 -0.919133 0.748776
1.94935 -1.0655 0.746833
2.15153 -1.21231 0.745553
2.355 -1.35806 0.744786
0.011 0.25 0.75
0.245244 0.218333 0.763281
0.465985 0.154299 0.763198
0.680536 0.067578 0.760231
0.890272 -0.0369913 0.756901
1.09569 -0.155405 0.753844
1.29753 -0.284945 0.751291
1.49721 -0.422541 0.749165
1.69594 -0.566086 0.74708
1.89474 -0.713123 0.7457
2.09444 -0.861019 0.744728
2.29631 -1.00824 0.743977
2.49998 -1.15349 0.743001
0.011 0.5 0.75
0.262918 0.467598 0.749593
0.511009 0.399917 0.749455
0.751145 0.30786 0.748202
0.981826 0.196979 0.746752
1.2037 0.0718664 0.74565
1.41797 -0.0639866 0.74456
1.62697 -0.20735 0.743571
1.83185 -0.355188 0.742956
2.03432 -0.505283 0.742497
2.23646 -0.654961 0.742426
2.43945 -0.803051 0.741961
2.64343 -0.948024 0.742104
0.011 0.75 0.75
0.279728 0.70397 0.736766
0.554696 0.632954 0.73541
0.81842 0.537412 0.736041
1.06895 0.422252 0.73649
1.30726 0.292312 0.73695
1.5347 0.151672 0.73742
1.7533 0.00425977 0.738017
1.96533 -0.146715 0.738632
2.17267 -0.299034 0.739411
2.37772 -0.449913 0.739688
2.5817 -0.598298 0.740367
2.78656 -0.743563 0.740176
0.011 1 0.75
0.306806 0.92239 0.725024
0.609564 0.853073 0.723811
0.895159 0.754936 0.724854
1.16376 0.635934 0.726712
1.41686 0.502019 0.728674
1.65612 0.358012 0.730745
1.88379 0.207893 0.732929
2.10228 0.0554365 0.734612
2.31383 -0.0969122 0.736166
2.5208 -0.247015 0.737612
2.72583 -0.394742 0.738334
2.93037 -0.540298 0.738682
0.011 0 1
0.201349 -0.0249497 1.05438
0.402099 -0.0798994 1.05414
0.597693 -0.162008 1.04402
0.790062 -0.261418 1.03377
0.981331 -0.374269 1.02532
1.17263 -0.498455 1.0179
1.3645 -0.632138 1.01099
1.55762 -0.772519 1.00542
1.75344 -0.917316 1.00061
1.95182 -1.06455 0.997532
2.15337 -1.21123 0.995699
2.35706 -1.35762 0.993747
0.011 0.25 1
0.242428 0.233491 1.0261
0.471072 0.171948 1.02562
0.689651 0.0825383 1.02043
0.89997 -0.0252804 1.01492
1.10466 -0.146504 1.00979
1.30535 -0.278208 1.00557
1.50353 -0.41791 1.00208
1.70077 -0.56298 0.998709
1.89831 -0.710718 0.996556
2.09712 -0.859515 0.994919
2.29813 -1.00706 0.994041
2.50154 -1.15263 0.992553
0.011 0.5 1
0.265227 0.480262 0.999777
0.516518 0.416077 0.998703
0.758147 0.322969 0.99731
0.989002 0.20964 0.995662
1.21036 0.0819712 0.994436
1.42382 -0.0562027 0.993101
1.63146 -0.201467 0.992168
1.83528 -0.350936 0.991788
2.03683 -0.501918 0.991833
2.23827 -0.652835 0.991705
2.44051 -0.801343 0.991983
2.64441 -0.946494 0.991839
0.011 0.75 1
0.286354 0.716405 0.974187
0.5601 0.648856 0.971922
0.823666 0.552644 0.973946
1.07401 0.435425 0.976045
1.31191 0.303125 0.978085
1.53847 0.160365 0.980175
1.75617 0.010806 0.982388
1.96731 -0.141738 0.984497
2.17418 -0.295054 0.986703
2.37815 -0.447136 0.988499
2.58202 -0.59606 0.989788
2.78625 -0.741446 0.99093
0.011 1 1
0.317658 0.939943 0.949145
0.614039 0.868913 0.947874
0.898687 0.769501 0.952124
1.16718 0.648612 0.957461
1.41999 0.512733 0.962467
1.65854 0.366669 0.967936
1.88534 0.21466 0.973258
2.10316 0.0606067 0.978024
2.31415 -0.0927219 0.982064
2.52086 -0.24403 0.985043
2.72556 -0.392208 0.98761
2.92941 -0.538403 0.989039
0.011 0 0.125
0.112497 -0.0215335 0.102751
0.113237 -0.0189768 -0.0364607
0.011 0.125 0
0.011 0.125 0.125
0.120789 0.121332 -0.0252661
0.223716 0.104742 -0.0378404
0.130492 0.247979 -0.0183083
0.126278 0.112814 0.106325
0.011 0.125 0.25
0.12998 0.241694 0.113092
0.011 0.25 0.125
0.209382 -0.0463693 0.0852088
0.230598 0.09281 0.0964367
0.114916 -0.0304541 0.235179
0.124579 0.1086 0.237475
0.246175 0.224048 0.105459
0.131201 0.237478 0.241411
0.228044 0.0859165 0.232494
0.302683 -0.0636213 0.0845115
0.301192 -0.0474504 -0.0510268
0.332394 0.079372 -0.0368071
0.439554 0.045495 -0.0378562
0.356435 0.206819 -0.0252813
0.33314 0.0674495 0.0958617
0.35743 0.195494 0.105072
0.398345 -0.0944289 0.0849927
0.436207 0.0339101 0.095025
0.30186 -0.0723822 0.224
0.331756 0.0606985 0.229994
0.467654 0.160326 0.104206
0.35607 0.188721 0.236461
0.433869 0.026754 0.229952
0.493433 -0.130322 0.0890359
0.499862 -0.11899 -0.0463324
0.543696 0.00502608 -0.0342497
0.645264 -0.041267 -0.0314908
0.579604 0.129223 -0.0236596
0.538184 -0.0046902 0.0980139
0.576037 0.119204 0.105914
0.589412 -0.171932 0.0914905
0.6394 -0.0495845 0.0997102
0.491522 -0.137592 0.226268
0.535531 -0.0111862 0.231529
0.682869 0.0726947 0.107301
0.573167 0.11289 0.237034
0.636275 -0.0555692 0.232601
0.684709 -0.218304 0.095964
0.691726 -0.210608 -0.037649
0.746549 -0.0912827 -0.0284117
0.845205 -0.14572 -0.0255442
0.793392 0.0292453 -0.0198598
0.739759 -0.0980852 0.10281
[...]
POINT_DATA 2025
SCALARS Displacements float 1
LOOKUP_TABLE default
0.011 0.0775938 0.137246 0.22932 0.340982 0.465694 0.601102 0.744938 0.894692 1.04805 1.20195 1.35574 1.5085 0.011 0.0304209 0.0891218 0.181931 0.296572 0.426118 0.56688 0.715829 0.870176 1.02747 1.18525 1.34082 1.49449 0.011 0.0242385 0.0863066 0.179064 0.293132 0.423004 0.564561 0.714755 0.870251 1.02831 1.18662 1.34262 1.49553 0.011 0.0548457 0.120671 0.213011 0.32559 0.453684 0.59355 0.74186 0.895596 1.0515 1.20724 1.36113 1.51237 0.011 0.0992505 0.181054 0.278992 0.392637 0.519174 0.655697 0.799491 0.948157 1.09849 1.24852 1.39765 1.54516 0.011 0.0722717 0.148669 0.243634 0.35335 0.475644 0.608512 0.7496 0.897436 1.04883 1.20198 1.35484 1.50629 0.011 0.0348272 0.103668 0.196804 0.308883 0.43567 0.573823 0.72044 0.872996 1.02847 1.18498 1.34013 1.49297 0.011 0.0347328 0.101126 0.192995 0.304803 0.432195 0.571639 0.719788 0.873386 1.02989 1.18676 1.34188 1.49453 0.011 0.0550983 0.129668 0.224012 0.335872 0.462468 0.600766 0.747377 0.899146 1.05358 1.20811 1.36101 1.51207 0.011 0.0979795 0.184701 0.285888 0.400266 0.526277 0.661982 0.804698 0.951644 1.10054 1.2494 1.39733 1.54478 0.011 0.0726573 0.151314 0.24757 0.3569 0.478349 0.61025 0.750742 0.897669 1.04843 1.20122 1.35324 1.50482 0.011 0.0365525 0.107453 0.201207 0.312631 0.438389 0.575633 0.721491 0.873395 1.02849 1.18416 1.33882 1.49153 0.011 0.0370291 0.105071 0.197046 0.308212 0.434788 0.573486 0.720904 0.873929 1.02991 1.18608 1.34081 1.49337 0.011 0.0562485 0.132354 0.22712 0.338791 0.46493 0.602609 0.748621 0.899855 1.05378 1.20772 1.36022 1.51066 0.011 0.0996702 0.185996 0.287834 0.402441 0.528178 0.663573 0.805823 0.952361 1.10064 1.24886 1.39641 1.54335 0.011 0.0713053 0.147943 0.242398 0.351565 0.473552 0.606463 0.747629 0.894984 1.04657 1.19938 1.35199 1.50345 0.011 0.0346671 0.10242 0.195468 0.30733 0.433798 0.571982 0.718482 0.870894 1.02656 1.18274 1.33755 1.48991 0.011 0.0348847 0.100688 0.192152 0.303583 0.430651 0.569946 0.717999 0.87159 1.02819 1.18467 1.33957 1.4913 0.011 0.0563706 0.130017 0.223763 0.335194 0.461441 0.599465 0.745844 0.897456 1.05193 1.20617 1.3588 1.50877 0.011 0.0993679 0.185143 0.285936 0.39988 0.525624 0.660979 0.803508 0.950209 1.09885 1.24725 1.395 1.54191 0.011 0.0771137 0.137477 0.226676 0.336977 0.461412 0.596616 0.740492 0.890236 1.04309 1.1974 1.35021 1.50218 0.011 0.0317967 0.0870931 0.179172 0.293271 0.422415 0.562957 0.711938 0.8663 1.02307 1.18041 1.33582 1.48858 0.011 0.02493 0.0855432 0.177239 0.290601 0.419941 0.561438 0.711455 0.866772 1.02438 1.1822 1.33766 1.48958 0.011 0.0558257 0.120957 0.212261 0.324051 0.451675 0.591221 0.73943 0.892471 1.04788 1.20338 1.35654 1.50671 0.011 0.103782 0.181399 0.278441 0.391449 0.517431 0.65366 0.797365 0.945296 1.09475 1.24429 1.39248 1.54006 0.011 0.0333926 0.0427537 0.011 0.011 0.0258759 0.0503303 0.0192209 0.0223361 0.011 0.0153488 0.011 0.0733706 0.0472068 0.0353383 0.0206403 0.0327106 0.0164017 0.0481255 0.104483 0.101503 0.0724703 0.106807 0.0533708 0.0768981 0.0606356 0.1444 0.115175 0.106135 0.080031 0.0975705 0.0655493 0.120115 0.188645 0.178787 0.14892 0.199013 0.131178 0.158382 0.140959 0.237638 0.208211 0.193161 0.16399 0.190413 0.147153 0.214106 0.29105 0.281713 0.25315 0.312895 0.236193 0.26182 0.244648 0.347598 0.320296 0.295844 0.267337 0.303422 0.25039 0.325502 0.407972 0.400457 0.374615 0.440865 0.358945 0.381478 0.365618 0.470731 0.446495 0.412118 0.386067 0.431324 0.370283 0.450698 0.536739 0.530966 0.5084 0.579669 0.494522 0.513541 0.499554 0.60461 0.583689 0.539973 0.51707 0.570516 0.503106 0.586823 0.675093 0.670994 0.651672 0.726656 0.639751 0.65522 0.643333 0.746918 0.729154 0.677351 0.657717 0.718121 0.645861 0.73127 0.820728 0.818086 0.801834 0.87926 0.791801 0.803997 0.794142 0.895429 0.880585 0.822125 0.805673 0.871445 0.795793 0.881988 0.971461 0.969925 0.95632 1.03503 0.947979 0.957435 0.949256 1.04767 1.03532 0.972035 0.958328 1.02773 0.950136 1.03591 1.12457 1.12402 1.11257 1.19124 1.10574 1.11285 1.10613 1.2012 1.19094 1.12461 1.1131 1.18464 1.10636 1.19103 1.27811 1.27821 1.26844 1.34611 1.26271 1.26807 1.26243 1.3544 1.34537 1.27779 1.26791 1.34 1.2623 1.34524 1.43078 1.43137 1.42257 1.49933 1.41749 1.42184 1.41682 1.5064 1.49806 1.43008 1.42137 1.49296 1.41642 1.49756 0.011 0.011 0.00955145 0.0208167 0.0126131 0.0140597 0.011 0.0149876 0.011 0.027116 0.0142818 0.0297998 0.0164534 0.0310619 0.0461583 0.0819681 0.0500801 0.055213 0.0591602 0.0914869 0.0607641 0.0948935 0.0642151 0.0977145 0.125237 0.175245 0.129028 0.134629 0.13828 0.183977 0.140886 0.186949 0.14419 0.189981 0.2301 0.289968 0.23321 0.237976 0.241166 0.296959 0.24362 0.299573 0.246562 0.302013 0.353092 0.420126 0.355782 0.359262 0.362201 0.425454 0.363853 0.42799 0.366656 0.429429 0.489395 0.561748 0.491972 0.493995 0.496984 0.565586 0.497536 0.568332 0.500495 0.568604 0.635591 0.711769 0.638307 0.638842 0.642062 0.714299 0.641429 0.717315 0.64467 0.716441 0.78861 0.867122 0.791523 0.790711 0.794053 0.868603 0.792482 0.871721 0.795869 0.869937 0.945613 1.02515 0.948625 0.946679 0.950125 1.02562 0.947675 1.02882 0.951222 1.0263 1.10406 1.18349 1.10706 1.10426 1.10767 1.1832 1.10463 1.18627 1.10814 1.18332 1.2614 1.33953 1.26444 1.26109 1.26435 1.33894 1.26106 1.34183 1.26427 1.33873 1.41638 1.49288 1.41906 1.41558 1.41847 1.49185 1.41525 1.49438 1.41823 1.49157 0.011 0.011 0.0190381 0.0378544 0.0283227 0.0205933 0.011 0.0275585 0.011 0.0407935 0.0204452 0.0530666 0.0261707 0.0423557 0.0647384 0.10022 0.0838109 0.0707363 0.0873596 0.107343 0.0742639 0.12587 0.0897322 0.112081 0.143082 0.191974 0.163825 0.150599 0.170416 0.199336 0.155827 0.219323 0.174634 0.204511 0.24627 0.305125 0.266809 0.253173 0.273551 0.311477 0.258281 0.331399 0.277989 0.316057 0.367911 0.434182 0.38765 0.373641 0.393636 0.439277 0.377982 0.458598 0.397606 0.443081 0.503354 0.575147 0.522096 0.507906 0.527093 0.579092 0.511415 0.597461 0.530426 0.582145 0.649045 0.724703 0.666571 0.652438 0.67053 0.727556 0.655151 0.744748 0.673218 0.729825 0.801542 0.879611 0.817914 0.803883 0.820803 0.881376 0.805803 0.897299 0.822731 0.882868 0.958049 1.03695 0.97307 0.959325 0.974872 1.03779 0.96055 1.05229 0.976109 1.0387 1.11564 1.19431 1.12919 1.11606 1.13009 1.19433 1.1167 1.20727 1.13078 1.19475 1.27208 1.34952 1.28417 1.27187 1.28435 1.34909 1.27201 1.36067 1.28461 1.34905 1.42582 1.50168 1.43678 1.42534 1.43654 1.50105 1.4252 1.5117 1.43654 1.50101 0.011 0.011 0.0390744 0.0749512 0.0520788 0.0372276 0.011 0.0519187 0.011 0.0730928 0.0345762 0.0955284 0.0499958 0.0725217 0.110013 0.148694 0.139015 0.110724 0.138359 0.151872 0.112147 0.183105 0.139558 0.154337 0.193345 0.242523 0.228095 0.197897 0.231606 0.247741 0.201176 0.28316 0.233802 0.25132 0.296862 0.355 0.334105 0.30238 0.338869 0.360253 0.306102 0.397232 0.341658 0.363947 0.417031 0.482085 0.454502 0.42226 0.459295 0.486726 0.425746 0.523393 0.462038 0.490079 0.550107 0.620305 0.586351 0.554606 0.590661 0.624197 0.557617 0.659284 0.593129 0.627127 0.692696 0.766593 0.726798 0.696386 0.730466 0.769651 0.698909 0.802349 0.732604 0.772044 0.841958 0.918099 0.873307 0.844675 0.876197 0.920076 0.846535 0.949841 0.877707 0.92174 0.994792 1.07162 1.023 0.996435 1.02495 1.07275 0.997713 1.09924 1.02584 1.07386 1.14848 1.22493 1.17338 1.14925 1.17437 1.22541 1.15003 1.24858 1.17485 1.22595 1.30116 1.37686 1.32308 1.30129 1.32332 1.37668 1.30153 1.39703 1.32334 1.37673 1.45186 1.52653 1.47131 1.45159 1.47089 1.52626 1.4515 1.54448 1.47091 1.52616 0.011 0.0325206 0.011 0.0201776 0.011 0.0159797 0.011 0.072815 0.0473985 0.0353278 0.0195429 0.0356751 0.0160814 0.0484306 0.107816 0.0817876 0.06753 0.150822 0.122696 0.107621 0.0821769 0.106694 0.0686411 0.12343 0.196284 0.167373 0.150446 0.246365 0.217532 0.196636 0.168113 0.200278 0.151514 0.218482 0.299072 0.270689 0.25351 0.355627 0.328544 0.299565 0.271468 0.311846 0.254522 0.329331 0.414831 0.388752 0.372757 0.477243 0.452993 0.415175 0.389351 0.437845 0.373499 0.453536 0.542016 0.519001 0.504867 0.609417 0.588362 0.54216 0.519382 0.575236 0.505366 0.588696 0.67871 0.658982 0.647006 0.750079 0.732285 0.678704 0.659208 0.72131 0.647269 0.732459 0.82293 0.806337 0.796402 0.897181 0.882345 0.822743 0.80636 0.873259 0.796479 0.882377 0.972238 0.958427 0.950272 1.04812 1.03579 0.971918 0.958324 1.02837 0.950275 1.03573 1.12436 1.1128 1.10614 1.20086 1.19055 1.12394 1.11262 1.18432 1.10593 1.19026 1.27729 1.26729 1.26173 1.3534 1.34436 1.27665 1.26685 1.33908 1.2613 1.34386 1.4293 1.42049 1.41557 1.50476 1.49661 1.4286 1.41998 1.49163 1.41506 1.49608 0.011 0.0159273 0.011 0.0174678 0.011 0.0332737 0.0154335 0.0354122 0.0173338 0.03356 0.063674 0.0668441 0.101032 0.0644838 0.103888 0.0675776 0.101919 0.144355 0.147253 0.19347 0.145348 0.196059 0.148338 0.1944 0.246753 0.24936 0.304985 0.24768 0.307376 0.250393 0.30574 0.366308 0.368868 0.431653 0.366996 0.434178 0.369681 0.432193 0.499317 0.50213 0.570155 0.499803 0.573005 0.502696 0.570551 0.642607 0.645739 0.717422 0.642858 0.720571 0.64611 0.717604 0.793099 0.796485 0.870397 0.793239 0.873734 0.796668 0.870484 0.947911 0.951448 1.02639 0.947956 1.02979 0.951457 1.02642 1.10443 1.1079 1.18287 1.10423 1.18613 1.10779 1.18259 1.26045 1.26375 1.338 1.26008 1.34106 1.26342 1.33756 1.41447 1.41752 1.49068 1.41403 1.49343 1.41714 1.49024 0.011 0.0211638 0.011 0.0266567 0.011 0.0440907 0.020909 0.054183 0.0261404 0.0439196 0.0765793 0.0908426 0.114746 0.0768413 0.131383 0.0914719 0.115467 0.158548 0.176759 0.207421 0.159505 0.226205 0.177614 0.208228 0.260834 0.280307 0.318633 0.261804 0.337969 0.281111 0.319385 0.380135 0.399622 0.445173 0.380901 0.464219 0.400358 0.445705 0.51309 0.532055 0.583696 0.513624 0.602032 0.532587 0.584108 0.656341 0.674394 0.730838 0.656698 0.748163 0.67478 0.731091 0.806535 0.82347 0.88341 0.806704 0.899488 0.823702 0.883536 0.960833 0.976417 1.0388 0.960842 1.05347 0.97654 1.03884 1.11658 1.13068 1.19437 1.1165 1.20754 1.13072 1.1942 1.2715 1.2842 1.34841 1.2713 1.36022 1.28397 1.34817 1.42451 1.43584 1.50022 1.42418 1.51091 1.43547 1.49972 0.011 0.0361924 0.011 0.0508572 0.011 0.0734905 0.034046 0.0961919 0.0500526 0.0735523 0.112478 0.139683 0.155626 0.113491 0.185429 0.140915 0.156284 0.202703 0.235086 0.253282 0.203574 0.287207 0.235507 0.253951 0.308133 0.343484 0.365988 0.308846 0.40178 0.343851 0.366641 0.427721 0.463919 0.491866 0.428316 0.527651 0.464178 0.492391 0.559307 0.594779 0.628522 0.559706 0.663 0.594978 0.628958 0.700212 0.733905 0.773 0.700464 0.805256 0.734021 0.773304 0.847424 0.878653 0.922306 0.847542 0.951769 0.878616 0.922559 0.998182 1.02637 1.07402 0.998235 1.10022 1.02626 1.07408 1.15002 1.17501 1.22567 1.14998 1.24866 1.17463 1.22558 1.30112 1.32294 1.37621 1.30091 1.39637 1.32266 1.37588 1.45085 1.47025 1.52531 1.45044 1.54364 1.46983 1.52476 0.011 0.0334102 0.011 0.0195623 0.011 0.0160087 0.011 0.0720399 0.046809 0.0338268 0.0189196 0.0353297 0.0150802 0.0471392 0.107174 0.0811727 0.0672863 0.150141 0.122016 0.105879 0.0793588 0.106117 0.064938 0.118952 0.195551 0.1668 0.149907 0.245634 0.216902 0.192151 0.162942 0.199691 0.146086 0.212939 0.298165 0.269969 0.25285 0.354757 0.327726 0.294098 0.265808 0.311124 0.248962 0.323981 0.413767 0.387865 0.371941 0.476275 0.452012 0.409992 0.384177 0.436987 0.368523 0.448826 0.540885 0.518021 0.503988 0.608416 0.587373 0.537782 0.515061 0.574378 0.50121 0.584993 0.67763 0.658014 0.646051 0.749075 0.731252 0.675175 0.655719 0.720345 0.6439 0.729406 0.821784 0.805284 0.795401 0.896072 0.881231 0.819848 0.803492 0.872274 0.793738 0.879804 0.971061 0.957322 0.949316 1.04701 1.03474 0.969625 0.956026 1.02742 0.948076 1.03383 1.12326 1.11172 1.10506 1.19964 1.18928 1.12214 1.11082 1.18317 1.10424 1.18871 1.27586 1.26603 1.26048 1.35207 1.34304 1.27508 1.26538 1.33777 1.25983 1.34259 1.42788 1.41905 1.41415 1.50324 1.49513 1.42723 1.41854 1.49013 1.41359 1.49457 0.011 0.0157644 0.011 0.0173412 0.011 0.0331523 0.0143302 0.0354156 0.016291 0.0309622 0.0634251 0.0667476 0.100602 0.0605 0.10375 0.063861 0.0970848 0.143965 0.14696 0.192887 0.140082 0.195687 0.143582 0.189093 0.246223 0.248903 0.304272 0.242487 0.30686 0.245601 0.30084 0.365621 0.368243 0.43083 0.362347 0.433488 0.365296 0.427907 0.498551 0.501377 0.569325 0.495881 0.572256 0.498878 0.567032 0.641733 0.644908 0.71648 0.63961 0.719728 0.64292 0.714692 0.792186 0.795614 0.869456 0.790579 0.872858 0.794096 0.868134 0.947053 0.950538 1.02547 0.945829 1.02891 0.949391 1.02459 1.10341 1.107 1.18179 1.10264 1.18514 1.10615 1.18126 1.25927 1.26267 1.33675 1.25871 1.33994 1.26205 1.33631 1.41312 1.4163 1.48918 1.41253 1.49191 1.41552 1.48841 0.011 0.0209061 0.011 0.0263002 0.011 0.0443298 0.0201898 0.0544969 0.0257232 0.0427023 0.076541 0.0911462 0.114897 0.074451 0.13179 0.0902088 0.112185 0.158436 0.176801 0.207193 0.155639 0.226193 0.174726 0.204172 0.260517 0.280059 0.318205 0.257684 0.337701 0.277609 0.315346 0.379634 0.399239 0.444554 0.376996 0.463744 0.39681 0.44198 0.512434 0.53147 0.582958 0.510114 0.601418 0.529303 0.580825 0.655587 0.673713 0.730035 0.65368 0.747438 0.671872 0.728318 0.805743 0.822712 0.882566 0.804237 0.898716 0.821193 0.88126 0.959992 0.975592 1.03797 0.958847 1.05265 0.974461 1.03711 1.11568 1.12984 1.19339 1.11484 1.20657 1.12892 1.19281 1.27052 1.28318 1.3473 1.2699 1.35906 1.28248 1.34684 1.42319 1.43448 1.49862 1.42251 1.50932 1.4338 1.49777 0.011 0.0357931 0.011 0.0497165 0.011 0.0739475 0.0332055 0.0964347 0.0483312 0.0737573 0.112803 0.140037 0.155991 0.11279 0.186003 0.140632 0.154822 0.202847 0.235342 0.25337 0.201553 0.287502 0.234456 0.251437 0.308032 0.343433 0.365784 0.305976 0.401666 0.341706 0.363619 0.427412 0.463612 0.491463 0.425225 0.527352 0.461711 0.489399 0.55886 0.594393 0.627972 0.55678 0.662527 0.592506 0.626116 0.699619 0.733378 0.772302 0.697776 0.804648 0.731717 0.77076 0.846719 0.877967 0.921533 0.845149 0.951015 0.876512 0.920304 0.997363 1.02554 1.07313 0.996188 1.09923 1.02434 1.07228 1.14909 1.17395 1.22467 1.14827 1.24764 1.17302 1.22406 1.30009 1.32184 1.37506 1.29941 1.3952 1.32117 1.37447 1.44956 1.46896 1.52377 1.44885 1.54216 1.46834 1.52308 0.011 0.034355 0.011 0.0190518 0.011 0.0149806 0.011 0.0709158 0.0457454 0.0436284 0.026454 0.0332539 0.015864 0.0496625 0.102897 0.0755341 0.0599807 0.142821 0.112959 0.101781 0.0711663 0.0964033 0.0532569 0.105642 0.185823 0.15624 0.139042 0.235412 0.2058 0.177618 0.146935 0.188822 0.129797 0.19647 0.287686 0.259235 0.242292 0.344957 0.317596 0.278717 0.25022 0.301386 0.234012 0.309419 0.404468 0.378562 0.362859 0.467833 0.443572 0.396724 0.371051 0.428908 0.356148 0.436975 0.5332 0.510507 0.496638 0.601599 0.580664 0.526995 0.504548 0.567945 0.491399 0.575535 0.671567 0.652143 0.640308 0.743916 0.726133 0.66695 0.647696 0.715427 0.636426 0.722518 0.817266 0.80087 0.791049 0.892283 0.877462 0.8141 0.797788 0.868636 0.788385 0.875087 0.967821 0.954112 0.946066 1.04433 1.03196 0.965718 0.952084 1.02469 0.944284 1.03036 1.12095 1.10945 1.10273 1.19772 1.18739 1.11963 1.10816 1.18125 1.10163 1.18642 1.2743 1.26437 1.25878 1.3504 1.34143 1.27338 1.26356 1.3362 1.25814 1.34078 1.42637 1.41755 1.41262 1.5017 1.49349 1.42576 1.41711 1.48844 1.41228 1.49307 0.011 0.0130707 0.011 0.0149791 0.011 0.027956 0.010121 0.030255 0.0138323 0.0206467 0.0548115 0.0584429 0.0907469 0.045711 0.0945254 0.0508704 0.0804078 0.133387 0.13708 0.182535 0.12389 0.186048 0.128575 0.173037 0.236268 0.2395 0.295036 0.22796 0.29818 0.231948 0.287164 0.357077 0.360044 0.423098 0.350207 0.426116 0.353825 0.416793 0.491574 0.494519 0.563112 0.486106 0.566252 0.489645 0.558202 0.636247 0.63945 0.711722 0.632074 0.715035 0.635709 0.708095 0.788009 0.791372 0.865842 0.784953 0.869249 0.788677 0.863294 0.943831 0.947301 1.02268 0.94166 1.02612 0.945391 1.02084 1.10108 1.10448 1.17982 1.09968 1.18313 1.10336 1.17872 1.25754 1.26088 1.33514 1.2567 1.33828 1.2601 1.33442 1.41151 1.41447 1.48734 1.41108 1.48998 1.41396 1.48666 0.011 0.0195732 0.011 0.0256757 0.011 0.0420006 0.0220758 0.0546851 0.0328569 0.0374225 0.0705289 0.0874219 0.107627 0.0653544 0.126257 0.0849403 0.0993725 0.150034 0.169962 0.198852 0.142777 0.219017 0.164162 0.190521 0.252118 0.272633 0.31033 0.245115 0.33057 0.266434 0.303055 0.372094 0.392218 0.437669 0.365983 0.457323 0.386644 0.431599 0.506016 0.525315 0.577218 0.500899 0.595898 0.520574 0.572363 0.650349 0.668517 0.725403 0.646235 0.742917 0.664802 0.721743 0.801604 0.818502 0.878951 0.798524 0.89511 0.815736 0.876287 0.956797 0.972251 1.03516 0.954443 1.04978 0.970239 1.0331 1.11322 1.12727 1.19129 1.11162 1.20445 1.12581 1.1901 1.26863 1.2811 1.34561 1.26758 1.35722 1.28017 1.34466 1.42138 1.43267 1.49652 1.42065 1.50735 1.43174 1.49567 0.011 0.0354757 0.011 0.047807 0.011 0.0754893 0.043901 0.0989927 0.0618685 0.077093 0.110876 0.138549 0.152353 0.110627 0.183647 0.140204 0.148432 0.197814 0.231648 0.247635 0.193431 0.283184 0.228708 0.241803 0.301842 0.338535 0.359596 0.296406 0.396731 0.334223 0.353665 0.421257 0.458466 0.485663 0.415909 0.522488 0.453994 0.480255 0.553242 0.589456 0.622793 0.548351 0.658117 0.585259 0.618218 0.694807 0.72902 0.768003 0.690642 0.800859 0.725412 0.764384 0.842745 0.87429 0.917969 0.839381 0.947873 0.871375 0.915287 0.99414 1.02251 1.07025 0.991604 1.09669 1.02027 1.06824 1.1466 1.17148 1.22254 1.1448 1.24557 1.16994 1.22121 1.29808 1.31995 1.37313 1.2969 1.39336 1.31893 1.37213 1.44768 1.46699 1.52197 1.44668 1.54044 1.46613 1.52094 
SCALARS weights float 1
LOOKUP_TABLE default