# vtk DataFile Version 5.1
vtk output
ASCII

DATASET UNSTRUCTURED_GRID
POINTS 2025 float
0 0 0
0.200373 -0.0254668 -0.0414821
0.414209 -0.0670895 -0.0427946
0.621386 -0.133798 -0.0332597
0.829457 -0.214936 -0.0240761
1.03951 -0.306789 -0.0164296
1.25174 -0.406814 -0.0104382
1.4661 -0.512872 -0.00588742
1.68253 -0.623221 -0.00232214
1.9009 -0.736469 0.000803664
2.12147 -0.85044 0.00272837
2.34383 -0.963882 0.00368159
2.56675 -1.07695 0.00486342
0 0.25 0
0.234745 0.239047 -0.0192049
0.467097 0.18821 -0.019906
0.694163 0.115612 -0.0156702
0.91688 0.0283358 -0.0110863
1.13705 -0.0691286 -0.00710616
1.35607 -0.17394 -0.00401071
1.57486 -0.283756 -0.00162904
1.79387 -0.396873 0.000299429
2.01344 -0.511429 0.00180826
2.23435 -0.626351 0.00263597
2.45628 -0.740403 0.00343123
2.67944 -0.853387 0.00438777
0 0.5 0
0.254258 0.487515 0.000822687
0.506271 0.434598 0.00107708
0.752048 0.359055 0.00142974
0.990574 0.268345 0.00203319
1.22313 0.167046 0.00269246
1.45119 0.0586371 0.00303842
1.67631 -0.0542615 0.00321574
1.89974 -0.169607 0.00325853
2.12225 -0.285782 0.00337285
2.34451 -0.401695 0.0033098
2.56725 -0.516404 0.0032914
2.79064 -0.629237 0.0035423
0 0.75 0
0.272306 0.725965 0.0202392
0.544001 0.670911 0.0202216
0.807798 0.594317 0.0178502
1.06175 0.50172 0.0151821
1.30658 0.398153 0.0126849
1.5442 0.287513 0.0102147
1.77619 0.172555 0.00814965
2.0043 0.0556963 0.00646381
2.23011 -0.0613992 0.00488007
2.45439 -0.177795 0.00378419
2.67806 -0.292631 0.00314623
2.90181 -0.405505 0.00278165
0 1 0
0.295278 0.952092 0.0357079
0.589954 0.898515 0.0385183
0.871069 0.820984 0.0337267
1.13944 0.726885 0.0279776
1.39595 0.62194 0.0224586
1.64207 0.510164 0.0173635
1.88027 0.394331 0.0127404
2.11244 0.277333 0.0092172
2.34057 0.160488 0.00623575
2.56613 0.0444207 0.004014
2.79007 -0.0697061 0.00289149
3.01376 -0.182311 0.00235731
0 0 0.25
0.206911 -0.0438205 0.232336
0.409205 -0.0844588 0.228814
0.614283 -0.146014 0.232853
0.822752 -0.223133 0.237959
1.03406 -0.312145 0.242254
1.2476 -0.41022 0.245694
1.46311 -0.514935 0.248192
1.68043 -0.624352 0.250288
1.8998 -0.736491 0.251792
2.12092 -0.849843 0.252879
2.34315 -0.963366 0.25368
2.56606 -1.07629 0.254437
0 0.25 0.25
0.236985 0.22586 0.241696
0.464014 0.174167 0.239577
0.688194 0.104206 0.241716
0.910692 0.0200721 0.244527
1.13181 -0.0748832 0.246998
1.35205 -0.177739 0.248851
1.57188 -0.286189 0.250252
1.79183 -0.3982 0.251417
2.01225 -0.511919 0.252235
2.23366 -0.62613 0.252776
2.45573 -0.739987 0.253467
2.67868 -0.852702 0.253997
0 0.5 0.25
0.252892 0.477079 0.250198
0.503473 0.422082 0.250026
0.748121 0.347883 0.25052
0.986599 0.259506 0.251177
1.21977 0.160458 0.251762
1.44873 0.0539501 0.252189
1.6746 -0.0573949 0.252463
1.89863 -0.171501 0.252633
2.12151 -0.286766 0.252964
2.34429 -0.401912 0.253021
2.56712 -0.516176 0.253128
2.79057 -0.62875 0.253318
0 0.75 0.25
0.267882 0.716115 0.258221
0.541028 0.659102 0.259519
0.80541 0.583236 0.258862
1.05973 0.492523 0.25771
1.30513 0.390972 0.256656
1.54328 0.282173 0.255658
1.77578 0.168945 0.25479
2.00432 0.0535247 0.254075
2.23025 -0.0626356 0.253458
2.45457 -0.17823 0.253089
2.67838 -0.292512 0.252757
2.90206 -0.405306 0.252809
0 1 0.25
0.290923 0.939792 0.26444
0.586456 0.886097 0.268696
0.868879 0.809944 0.266772
1.1378 0.717918 0.264122
1.39469 0.614896 0.261592
1.6414 0.50491 0.259222
1.88009 0.390945 0.257049
2.11271 0.275302 0.255401
2.34095 0.159425 0.254016
2.56627 0.0442422 0.253074
2.79022 -0.0694424 0.252542
3.01381 -0.182067 0.252414
0 0 0.5
0.207358 -0.0477536 0.502141
0.409036 -0.0900472 0.500959
0.613166 -0.150486 0.501018
0.821353 -0.226136 0.501268
1.0327 -0.314113 0.501689
1.24661 -0.411368 0.502103
1.46234 -0.515585 0.50251
1.68 -0.62451 0.502838
1.89946 -0.736457 0.503171
2.12055 -0.849679 0.503465
2.34304 -0.962818 0.5038
2.56614 -1.07575 0.504136
0 0.25 0.5
0.237117 0.223324 0.50097
0.463563 0.170317 0.500549
0.686889 0.100675 0.50071
0.909069 0.0174143 0.500939
1.13026 -0.0766964 0.501336
1.35076 -0.178836 0.501751
1.57101 -0.286767 0.502104
1.79116 -0.39834 0.502511
2.01181 -0.511888 0.502765
2.23314 -0.626017 0.503043
2.45558 -0.739551 0.503408
2.67873 -0.85229 0.503659
0 0.5 0.5
0.252257 0.475038 0.500093
0.502593 0.418874 0.500188
0.747028 0.34472 0.500446
0.985414 0.256864 0.500763
1.2187 0.158528 0.501042
1.44788 0.0527125 0.501488
1.674 -0.0580687 0.501794
1.89819 -0.171803 0.502108
2.12124 -0.286818 0.502515
2.34407 -0.401728 0.502689
2.56709 -0.515827 0.50295
2.79046 -0.628435 0.503209
0 0.75 0.5
0.266715 0.713642 0.499444
0.539772 0.655768 0.499687
0.804474 0.580088 0.50023
1.05883 0.48985 0.500598
1.30437 0.38893 0.500947
1.54279 0.280759 0.501232
1.77543 0.168127 0.501558
2.00405 0.0530907 0.50185
2.23011 -0.0626839 0.502037
2.45447 -0.178034 0.502349
2.67834 -0.292223 0.502516
2.902 -0.404916 0.502813
0 1 0.5
0.290146 0.936212 0.498554
0.585051 0.882357 0.499967
0.867774 0.806812 0.500136
1.13696 0.715405 0.500457
1.39394 0.612985 0.500846
1.64083 0.503658 0.501167
1.87963 0.390255 0.501363
2.11232 0.275023 0.50161
2.34074 0.159331 0.501801
2.56632 0.0445073 0.501913
2.79021 -0.0691896 0.502124
3.01384 -0.181699 0.502488
0 0 0.75
0.208735 -0.0424183 0.771893
0.409386 -0.0843172 0.773171
0.614096 -0.145583 0.768917
0.822562 -0.222369 0.76457
1.03387 -0.311249 0.761081
1.24747 -0.409266 0.758606
1.46298 -0.514033 0.756741
1.68042 -0.623407 0.755388
1.89969 -0.735556 0.754605
2.12081 -0.848968 0.753974
2.34312 -0.962394 0.753796
2.56617 -1.07527 0.754071
0 0.25 0.75
0.237202 0.226573 0.76035
0.463786 0.174953 0.761419
0.687929 0.10505 0.759529
0.910457 0.0209641 0.757389
1.13165 -0.07397 0.755842
1.35193 -0.176815 0.75471
1.57187 -0.285251 0.753955
1.79175 -0.39718 0.753606
2.01223 -0.511043 0.753305
2.23334 -0.625243 0.753256
2.45565 -0.738966 0.753379
2.67868 -0.851602 0.753576
0 0.5 0.75
0.252695 0.476938 0.749862
0.50334 0.422549 0.750391
0.74802 0.348747 0.750395
0.986516 0.260423 0.750365
1.21963 0.161393 0.750443
1.44856 0.0549078 0.750749
1.67451 -0.0563949 0.751109
1.89846 -0.170513 0.751682
2.12137 -0.28579 0.752125
2.3441 -0.400936 0.752398
2.56699 -0.515146 0.752851
2.79036 -0.627616 0.753173
0 0.75 0.75
0.267468 0.715508 0.740255
0.541115 0.659454 0.740025
0.805388 0.584045 0.741714
1.05958 0.49344 0.743445
1.3049 0.39188 0.745178
1.54299 0.283099 0.746847
1.77561 0.169942 0.74837
2.00417 0.0544442 0.749614
2.23003 -0.0616748 0.750683
2.45428 -0.177134 0.751529
2.67802 -0.291464 0.752214
2.90163 -0.404126 0.752923
0 1 0.75
0.290866 0.940127 0.731504
0.58686 0.886714 0.731304
0.869106 0.810795 0.733677
1.13797 0.71876 0.736809
1.39471 0.61566 0.740088
1.64134 0.505735 0.743073
1.88002 0.391963 0.745494
2.11254 0.276249 0.747679
2.34062 0.160293 0.749523
2.5661 0.0453575 0.750789
2.78999 -0.0685256 0.751717
3.01356 -0.181132 0.752566
0 0 1
0.201108 -0.0210481 1.04504
0.411824 -0.065546 1.04474
0.620634 -0.132391 1.03586
0.829365 -0.213537 1.02705
1.03949 -0.30516 1.01996
1.25164 -0.405258 1.01462
1.46597 -0.51139 1.01078
1.68243 -0.621777 1.00775
1.90119 -0.734435 1.00568
2.12159 -0.848357 1.00438
2.34352 -0.962225 1.00376
2.56658 -1.07488 1.00356
0 0.25 1
0.23385 0.238609 1.02112
0.466847 0.189401 1.02127
0.693923 0.117154 1.01746
0.916566 0.0300593 1.01326
1.13683 -0.0673123 1.01001
1.35583 -0.17212 1.0076
1.57458 -0.281919 1.00586
1.79357 -0.394963 1.00454
2.01333 -0.50952 1.00392
2.23418 -0.624302 1.00339
2.45587 -0.738474 1.0034
2.67903 -0.850913 1.00335
0 0.5 1
0.254379 0.486841 0.999551
0.506564 0.435623 0.999684
0.752132 0.360829 0.999624
0.990415 0.27023 0.999541
1.22285 0.168956 0.999586
1.45092 0.0605999 0.999905
1.67619 -0.0522774 1.00039
1.89953 -0.167579 1.0011
2.12209 -0.283845 1.00159
2.34439 -0.399647 1.00215
2.56701 -0.514245 1.00272
2.79047 -0.626673 1.00311
0 0.75 1
0.273241 0.725556 0.979845
0.544603 0.672446 0.97941
0.808007 0.596181 0.982493
1.06171 0.503663 0.985885
1.3064 0.399925 0.98922
1.54403 0.289239 0.992252
1.77601 0.17455 0.994968
2.00413 0.0578619 0.997409
2.22973 -0.0593959 0.9993
2.45395 -0.175711 1.00076
2.67761 -0.290373 1.00198
2.90128 -0.403011 1.00305
0 1 1
0.300567 0.955091 0.960358
0.59038 0.90033 0.960915
0.871059 0.822715 0.966577
1.13937 0.728826 0.972916
1.3955 0.623527 0.979272
1.64173 0.511867 0.984987
1.87993 0.396509 0.989706
2.11204 0.279489 0.99407
2.34 0.162525 0.997333
2.56529 0.0467393 0.999795
2.78921 -0.0672626 1.00138
3.01277 -0.1797 1.00264
0 0 0.125
0.107367 -0.0187367 0.107033
0.107863 -0.0166357 -0.0302075
0 0.125 0
0 0.125 0.125
0.113196 0.121908 -0.0208657
0.220448 0.109126 -0.031396
0.120576 0.24863 -0.0134566
0.117581 0.115317 0.110176
0 0.125 0.25
0.120447 0.24414 0.116127
0 0.25 0.125
0.209176 -0.038691 0.093223
0.225531 0.0994552 0.102683
0.108793 -0.0254487 0.238463
0.116367 0.111495 0.240392
0.237691 0.230662 0.110612
0.121064 0.240794 0.244012
0.2244 0.0937961 0.235973
0.309065 -0.0524626 0.0918842
0.306584 -0.0397536 -0.042352
0.33154 0.0889698 -0.0303464
0.442816 0.0618726 -0.0307461
0.35105 0.217093 -0.0198909
0.332678 0.0791779 0.101437
0.351945 0.20814 0.109749
0.410607 -0.0774244 0.0928419
0.440498 0.0522947 0.101422
0.308215 -0.0597826 0.228961
0.331801 0.0734818 0.234258
0.465492 0.179764 0.109444
0.351163 0.202577 0.239923
0.438994 0.0461794 0.234163
0.513133 -0.10632 0.0963279
0.517431 -0.0972195 -0.0373423
0.552043 0.0290541 -0.02732
0.66035 -0.00839892 -0.024148
0.580879 0.154634 -0.0177887
0.548199 0.0211584 0.103943
0.578338 0.146741 0.111057
0.616286 -0.140322 0.0994578
0.655869 -0.0151954 0.106308
0.511433 -0.112397 0.231207
0.546103 0.015626 0.236006
0.690381 0.10912 0.112819
0.576266 0.141499 0.240833
0.653486 -0.0201922 0.237308
0.720326 -0.178037 0.103633
0.725368 -0.172076 -0.0282584
0.768404 -0.0491001 -0.0209232
0.875517 -0.0930841 -0.0174273
0.80583 0.0738351 -0.0134373
0.76349 -0.0544799 0.109278
0.802058 0.0681313 0.114737
0.824898 -0.218933 0.10666
0.871155 -0.0976081 0.111749
0.718275 -0.182357 0.235991
0.761012 -0.0587624 0.239697
0.912963 0.0238042 0.116633
[...]
POINT_DATA 2025
SCALARS scalars float 1
LOOKUP_TABLE default
0 0.0695138 0.117015 0.188546 0.275431 0.372419 0.476699 0.586234 0.699424 0.815021 0.930881 1.04597 1.16084 0 0.026861 0.0727792 0.146368 0.236995 0.338602 0.447725 0.561758 0.678922 0.797331 0.915733 1.03305 1.14902 0 0.0132167 0.065711 0.140967 0.231855 0.334047 0.444064 0.559148 0.677079 0.796106 0.91501 1.03271 1.14848 0 0.0385339 0.0927365 0.167022 0.256294 0.356592 0.464707 0.578097 0.694347 0.811658 0.928924 1.04511 1.15967 0 0.0749691 0.140978 0.218728 0.307928 0.405874 0.510318 0.61965 0.73142 0.844407 0.957873 1.07046 1.18239 0 0.0639446 0.125801 0.200083 0.28522 0.379639 0.481666 0.589462 0.701385 0.815515 0.93056 1.04576 1.16048 0 0.0286544 0.084583 0.15857 0.246724 0.345726 0.452606 0.565002 0.680808 0.798155 0.915722 1.0328 1.14857 0 0.0231033 0.0779955 0.152129 0.240869 0.34089 0.448992 0.562477 0.679114 0.797195 0.915261 1.03251 1.14802 0 0.0391856 0.100182 0.175952 0.264426 0.363297 0.469859 0.581646 0.696501 0.812883 0.929346 1.04497 1.15945 0 0.0742173 0.144216 0.2248 0.31426 0.411552 0.514968 0.622833 0.73343 0.84549 0.958058 1.0702 1.18215 0 0.0640572 0.128 0.203398 0.28819 0.381956 0.483153 0.590407 0.701729 0.815634 0.930564 1.0453 1.15995 0 0.0296395 0.0876201 0.162116 0.249731 0.347953 0.454066 0.565828 0.68115 0.798258 0.915766 1.03243 1.14816 0 0.0250644 0.0811678 0.155309 0.243575 0.342906 0.450317 0.563223 0.679477 0.797287 0.915114 1.03217 1.14773 0 0.0400206 0.102282 0.178431 0.266721 0.365142 0.471189 0.58243 0.696924 0.81293 0.929153 1.04469 1.15907 0 0.0753832 0.145168 0.226257 0.315836 0.412915 0.515935 0.623373 0.733629 0.845554 0.957793 1.06995 1.18178 0 0.063098 0.125925 0.200056 0.284859 0.379091 0.480982 0.588776 0.700569 0.814726 0.929812 1.04488 1.1595 0 0.0286308 0.0841069 0.157969 0.246028 0.344958 0.451796 0.564127 0.679871 0.797327 0.91497 1.03185 1.14751 0 0.0232198 0.0775245 0.151267 0.239956 0.339967 0.448056 0.561494 0.67816 0.796251 0.914327 1.03152 1.14694 0 0.0398726 0.0999428 0.17515 0.263468 0.362335 0.468887 0.580626 0.695568 0.811921 0.928262 1.04395 1.15831 0 0.0748126 0.143972 0.224168 0.313537 0.410801 0.514124 0.621801 0.732452 0.844583 0.956928 1.06928 1.18121 0 0.0697269 0.118627 0.188544 0.274674 0.371264 0.475531 0.585069 0.698226 0.813077 0.928936 1.04457 1.15898 0 0.0289217 0.0722756 0.14525 0.235608 0.33704 0.446127 0.56013 0.677207 0.795549 0.913824 1.03131 1.14675 0 0.0138758 0.0647114 0.139188 0.22997 0.332155 0.442132 0.557188 0.675098 0.794214 0.913008 1.03062 1.14599 0 0.0392926 0.0918044 0.165322 0.254341 0.354754 0.462925 0.57606 0.692155 0.80965 0.926856 1.04289 1.15723 0 0.0783922 0.140108 0.217261 0.306091 0.404145 0.508515 0.617405 0.729194 0.842301 0.955494 1.06798 1.17977 0 0.0313815 0.0385088 0 0 0.0241715 0.0459455 0.0142313 0.0191977 0 0.0115675 0 0.0646018 0.0418249 0.0323016 0.0186878 0.0270647 0.0116658 0.0427296 0.0905339 0.0897484 0.0640924 0.090556 0.0453002 0.0666786 0.0501637 0.122555 0.0968632 0.0920696 0.0690514 0.0797862 0.054025 0.100922 0.156972 0.149723 0.123591 0.162529 0.106573 0.130862 0.114167 0.195505 0.169896 0.160884 0.135585 0.15346 0.119296 0.174805 0.236808 0.229779 0.20521 0.251715 0.189734 0.211883 0.196219 0.280943 0.257548 0.240859 0.21649 0.242508 0.200848 0.261721 0.32758 0.322213 0.300273 0.351609 0.286416 0.305288 0.29125 0.37626 0.355759 0.33089 0.308933 0.342528 0.294836 0.358899 0.426962 0.423203 0.404201 0.458865 0.392155 0.407681 0.395541 0.479182 0.461647 0.429382 0.410328 0.450334 0.398118 0.463841 0.53293 0.530438 0.514252 0.571153 0.504012 0.516542 0.506265 0.587752 0.57291 0.534578 0.518358 0.563411 0.508037 0.574405 0.643671 0.642115 0.628457 0.686775 0.619851 0.629852 0.621235 0.700231 0.687767 0.644693 0.631008 0.679762 0.622374 0.688665 0.757505 0.756737 0.745166 0.804104 0.737834 0.74582 0.738532 0.81495 0.804356 0.757953 0.746439 0.797603 0.739172 0.80477 0.872693 0.872547 0.862613 0.921466 0.856407 0.862715 0.85659 0.930364 0.921277 0.87276 0.862947 0.915554 0.856818 0.921343 0.988089 0.988241 0.979658 1.0379 0.97436 0.979502 0.974227 1.04559 1.03766 0.988022 0.979519 1.03271 0.974242 1.03767 1.10307 1.10327 1.09564 1.15343 1.09104 1.09541 1.09075 1.16039 1.15311 1.103 1.09537 1.14847 1.09067 1.15309 0 0 0.0057337 0.0145638 0.00249374 0.00639734 0 0.00569841 0 0.0190229 0.00790608 0.0191961 0.0078394 0.0226883 0.0355986 0.0640876 0.0361741 0.0425621 0.043613 0.0719939 0.0471976 0.0730042 0.0478681 0.0771628 0.0992676 0.139156 0.100816 0.106707 0.108072 0.146281 0.111882 0.147357 0.112848 0.151169 0.18312 0.230405 0.184496 0.189191 0.190477 0.235898 0.19372 0.236917 0.194686 0.239849 0.280371 0.33274 0.28157 0.28492 0.286145 0.336756 0.288442 0.337812 0.289507 0.339721 0.386894 0.442749 0.388072 0.390129 0.391404 0.44551 0.392699 0.446693 0.393935 0.447621 0.499629 0.557703 0.500909 0.501815 0.503222 0.559518 0.503629 0.560863 0.505024 0.560966 0.616283 0.675577 0.617683 0.617641 0.619159 0.676626 0.618828 0.678067 0.620331 0.677525 0.734876 0.794594 0.736338 0.73561 0.737168 0.795053 0.736305 0.796537 0.737878 0.795561 0.854033 0.913515 0.855473 0.854246 0.855781 0.913498 0.854543 0.914946 0.856128 0.913632 0.972397 1.03124 0.97382 0.972305 0.973818 1.03101 0.972346 1.03237 0.97385 1.03099 1.08938 1.14723 1.09068 1.08904 1.09039 1.1468 1.08896 1.14794 1.09028 1.14675 0 0 0.0100827 0.0244248 0.0185808 0.0107171 0 0.0169217 0 0.0273529 0.0108358 0.0378364 0.0161936 0.0288193 0.0468268 0.0759872 0.0624999 0.0522249 0.0656197 0.0821714 0.0550984 0.097017 0.0675046 0.0860736 0.111009 0.15032 0.127601 0.117206 0.132869 0.156455 0.121362 0.172164 0.136287 0.160569 0.193813 0.240423 0.209866 0.199289 0.21511 0.245557 0.203219 0.260912 0.218629 0.249105 0.290058 0.341874 0.305111 0.294433 0.309553 0.345879 0.297681 0.36035 0.312637 0.348697 0.395812 0.451224 0.409706 0.399101 0.413212 0.454167 0.401624 0.467557 0.415683 0.456293 0.508004 0.565779 0.520751 0.510348 0.523291 0.567779 0.512172 0.579992 0.525111 0.569251 0.624223 0.683194 0.635796 0.625731 0.637465 0.684426 0.626938 0.695424 0.638678 0.685328 0.742319 0.80166 0.752726 0.743156 0.753726 0.802314 0.743882 0.812181 0.754464 0.802845 0.860873 0.920015 0.870181 0.861205 0.870641 0.920164 0.861583 0.928972 0.871024 0.920375 0.978703 1.03719 0.987037 0.978685 0.987068 1.03705 0.97878 1.04484 0.98718 1.03703 1.095 1.15252 1.10243 1.09474 1.10223 1.15213 1.09466 1.15925 1.10219 1.15215 0 0 0.0270908 0.0553523 0.0385713 0.0252615 0 0.0374936 0 0.0539153 0.0232408 0.0725196 0.036511 0.0536777 0.0832109 0.114855 0.106585 0.0843441 0.106451 0.117745 0.0855361 0.142751 0.107397 0.11987 0.150461 0.189822 0.178089 0.154567 0.181275 0.194414 0.157293 0.222353 0.183111 0.197437 0.23282 0.278617 0.261804 0.237501 0.265994 0.283138 0.240536 0.311707 0.268234 0.286088 0.327167 0.377685 0.35567 0.331343 0.359648 0.38155 0.334112 0.40917 0.361783 0.384123 0.430281 0.484154 0.457135 0.433664 0.46052 0.487212 0.435963 0.512972 0.462347 0.489241 0.539555 0.595774 0.564248 0.542068 0.566874 0.597895 0.543761 0.621313 0.5682 0.599325 0.652771 0.710142 0.67499 0.65439 0.676728 0.711458 0.655552 0.732363 0.677637 0.712373 0.767862 0.825665 0.78756 0.768808 0.788638 0.826411 0.76954 0.844856 0.789152 0.826925 0.883544 0.941331 0.900934 0.883974 0.901454 0.94157 0.884328 0.9577 0.901572 0.941779 0.998827 1.05603 1.01405 0.99883 1.01407 1.05592 0.998938 1.07006 1.01401 1.05592 1.11285 1.16949 1.12633 1.11264 1.12612 1.16925 1.11262 1.182 1.12603 1.16931 0 0.030504 0 0.016888 0 0.0113242 0 0.0638685 0.0415887 0.0324035 0.0179129 0.0288598 0.0115279 0.0425817 0.0932089 0.070215 0.0554979 0.127412 0.102704 0.0932459 0.070652 0.0868429 0.0563662 0.103553 0.163285 0.138179 0.121914 0.202361 0.177361 0.163825 0.138957 0.161199 0.122867 0.178347 0.243401 0.219069 0.203326 0.287175 0.263997 0.244041 0.219871 0.248934 0.204224 0.264828 0.332965 0.310965 0.296781 0.38104 0.360614 0.333505 0.311632 0.347311 0.297467 0.361259 0.43088 0.411747 0.399491 0.482496 0.46495 0.431261 0.412236 0.453603 0.399957 0.465378 0.535542 0.519225 0.508901 0.589882 0.575042 0.535777 0.519537 0.565511 0.509179 0.5753 0.645274 0.63148 0.622834 0.701405 0.688919 0.645354 0.631649 0.680941 0.622976 0.689045 0.758181 0.746574 0.739335 0.815319 0.804802 0.758172 0.746647 0.798113 0.739383 0.804873 0.872818 0.862935 0.856837 0.930274 0.921283 0.872792 0.862992 0.915615 0.856846 0.921373 0.987909 0.979356 0.974094 1.04531 1.03739 0.987765 0.979253 1.03243 0.974008 1.03727 1.10274 1.09512 1.09042 1.16005 1.15275 1.10255 1.09495 1.1481 1.09028 1.15259 0 0.00858455 0 0.00875089 0 0.0237422 0.00883432 0.0239775 0.00887831 0.0244729 0.0493214 0.0500827 0.0795897 0.0501128 0.0802383 0.0506263 0.080488 0.114606 0.115406 0.153789 0.115498 0.154477 0.116203 0.154633 0.196157 0.197012 0.242039 0.19696 0.242848 0.197749 0.242758 0.290319 0.29133 0.341327 0.29096 0.342327 0.291919 0.341873 0.394009 0.395228 0.448682 0.394447 0.449915 0.395633 0.449029 0.504448 0.505849 0.561573 0.50472 0.562972 0.506099 0.561751 0.61924 0.620784 0.677786 0.619368 0.679292 0.620904 0.677882 0.736481 0.738056 0.795615 0.736521 0.797145 0.738104 0.795641 0.854529 0.856116 0.913602 0.854518 0.91507 0.856074 0.913566 0.972196 0.973704 1.03074 0.972096 1.03212 0.973618 1.03064 1.08869 1.09007 1.14646 1.08862 1.14766 1.08995 1.14641 0 0.0115064 0 0.0162733 0 0.0300709 0.0112035 0.0387416 0.015945 0.030116 0.0571582 0.0685818 0.0881718 0.057176 0.101536 0.0688635 0.0887309 0.123717 0.138147 0.16282 0.12427 0.17772 0.138671 0.163458 0.205425 0.220606 0.251077 0.20601 0.266089 0.221106 0.251664 0.299468 0.314317 0.350206 0.299948 0.364603 0.314743 0.350668 0.402927 0.416941 0.45735 0.403271 0.470759 0.417291 0.457634 0.513038 0.525975 0.569887 0.513243 0.582162 0.526185 0.570044 0.627425 0.639179 0.685648 0.627529 0.696735 0.639279 0.685742 0.744105 0.754682 0.80294 0.744142 0.812834 0.754707 0.802927 0.861584 0.871016 0.920282 0.861535 0.92913 0.870954 0.920238 0.978604 0.987022 1.0368 0.978528 1.04466 0.986927 1.03671 1.09444 1.10199 1.1519 1.09434 1.15905 1.10185 1.15184 0 0.0241929 0 0.036758 0 0.0542809 0.0224864 0.0732877 0.0361617 0.0543888 0.0859536 0.107585 0.12092 0.0864975 0.144797 0.108241 0.121347 0.158708 0.184249 0.199037 0.159122 0.225811 0.184331 0.199438 0.242279 0.269755 0.287726 0.242616 0.315415 0.26982 0.288094 0.335709 0.363257 0.385491 0.335982 0.412497 0.363293 0.385799 0.437219 0.463564 0.490267 0.437432 0.515602 0.463554 0.490453 0.544653 0.569072 0.599958 0.544764 0.623113 0.568975 0.600073 0.656083 0.678167 0.712729 0.656107 0.733443 0.678013 0.712757 0.769766 0.789407 0.827023 0.769737 0.845304 0.789276 0.827018 0.884342 0.901621 0.941657 0.884253 0.957648 0.90145 0.941561 0.99877 1.0139 1.05574 0.998672 1.0698 1.01371 1.05565 1.11241 1.12585 1.16901 1.11227 1.18173 1.12569 1.16891 0 0.030805 0 0.0161323 0 0.0111172 0 0.0632745 0.0411539 0.0310636 0.0173754 0.0286328 0.0107997 0.0419945 0.093036 0.0699431 0.0554524 0.127255 0.102502 0.0923491 0.0690776 0.0865873 0.0540364 0.10056 0.163196 0.138014 0.121704 0.202251 0.177178 0.161035 0.135431 0.160918 0.118952 0.174498 0.243177 0.21881 0.203015 0.286975 0.263703 0.240572 0.216025 0.248599 0.200251 0.261232 0.332673 0.310633 0.296407 0.380789 0.360239 0.330349 0.308266 0.346924 0.294115 0.35826 0.430562 0.411379 0.399082 0.482187 0.464574 0.42872 0.409575 0.453215 0.397336 0.463103 0.535201 0.518824 0.508467 0.589563 0.57465 0.533847 0.517535 0.565093 0.507202 0.573623 0.644891 0.631077 0.622377 0.701024 0.688498 0.643923 0.630177 0.680502 0.621493 0.687809 0.757815 0.746156 0.738889 0.814954 0.804412 0.757135 0.74554 0.797701 0.738285 0.803942 0.872461 0.862583 0.856427 0.929937 0.920925 0.871963 0.862145 0.915189 0.855988 0.920598 0.987469 0.978887 0.973631 1.04488 1.03694 0.98717 0.978613 1.03196 0.97332 1.03674 1.10227 1.09461 1.08992 1.15948 1.15223 1.10206 1.09439 1.14759 1.08968 1.15203 0 0.00842132 0 0.00866005 0 0.0236474 0.00779242 0.0239251 0.00769477 0.0226617 0.0492023 0.0499638 0.0793549 0.0471606 0.0800582 0.0475529 0.0766983 0.114406 0.115137 0.153415 0.111409 0.154107 0.112295 0.150466 0.19583 0.196615 0.241644 0.192995 0.242437 0.193939 0.239086 0.289954 0.290902 0.34092 0.287654 0.341912 0.28868 0.338923 0.39361 0.394778 0.448269 0.391861 0.449485 0.393049 0.4468 0.504019 0.505394 0.56111 0.502753 0.562518 0.504105 0.560065 0.618784 0.620328 0.677322 0.617884 0.678848 0.619379 0.676598 0.73603 0.737615 0.795187 0.735412 0.796687 0.736957 0.794667 0.854067 0.855647 0.913123 0.853635 0.914612 0.855176 0.912795 0.971727 0.973234 1.03026 0.971403 1.03164 0.972899 1.03003 1.08822 1.08959 1.14595 1.08798 1.14714 1.08927 1.1457 0 0.0112773 0 0.0158529 0 0.0301083 0.0104259 0.0388088 0.015288 0.0289393 0.0569877 0.0685677 0.0881011 0.0548248 0.101599 0.0674038 0.0856731 0.123489 0.13792 0.162467 0.120751 0.177402 0.135774 0.159795 0.205059 0.220164 0.250644 0.202397 0.26563 0.217819 0.248224 0.299049 0.313847 0.349772 0.296794 0.364152 0.311734 0.347797 0.402488 0.4165 0.456891 0.400695 0.470298 0.414745 0.455382 0.512582 0.525511 0.569401 0.511233 0.581677 0.524158 0.568279 0.626965 0.638705 0.685207 0.625963 0.696286 0.637725 0.684393 0.743666 0.754244 0.80245 0.742974 0.81237 0.753538 0.801913 0.861116 0.870519 0.919805 0.860631 0.928614 0.870003 0.919406 0.978119 0.986512 1.03631 0.977778 1.04416 0.98611 1.03604 1.09395 1.10147 1.15135 1.09363 1.1585 1.10111 1.15109 0 0.0235934 0 0.0355717 0 0.0544747 0.0214885 0.0731703 0.0342534 0.054177 0.0859314 0.10753 0.12092 0.085382 0.144843 0.107467 0.119545 0.158471 0.184092 0.198727 0.156774 0.225602 0.182755 0.19673 0.241888 0.26942 0.287275 0.239744 0.315007 0.267579 0.285241 0.335276 0.362878 0.385023 0.333257 0.412057 0.361061 0.38325 0.436777 0.463166 0.489785 0.43509 0.515128 0.461586 0.488358 0.544206 0.568592 0.599469 0.542853 0.622584 0.567295 0.598322 0.655605 0.677665 0.712247 0.654603 0.73295 0.67667 0.711438 0.769321 0.788961 0.826568 0.768587 0.844825 0.788188 0.825992 0.883824 0.901131 0.941097 0.883299 0.957086 0.900554 0.940683 0.998234 1.01338 1.05522 0.997841 1.0693 1.01296 1.05492 1.11187 1.12534 1.16849 1.11155 1.18126 1.12502 1.16825 0 0.0311941 0 0.0164755 0 0.0103164 0 0.0636631 0.0418804 0.0408988 0.0268921 0.0282777 0.0148775 0.0466167 0.0908788 0.0668112 0.0507603 0.122491 0.0962614 0.0903467 0.0642188 0.0793303 0.0457219 0.0909104 0.156569 0.130447 0.113562 0.19516 0.16917 0.150229 0.123297 0.15266 0.105927 0.162079 0.23603 0.211158 0.19523 0.280433 0.256709 0.229305 0.204387 0.241573 0.188593 0.250785 0.326659 0.304343 0.290098 0.375558 0.35477 0.321263 0.299073 0.341474 0.285019 0.350354 0.42596 0.406608 0.3943 0.478355 0.460574 0.422054 0.402829 0.449209 0.390612 0.457549 0.531916 0.515423 0.505007 0.586825 0.571828 0.529242 0.512834 0.562225 0.502431 0.569784 0.642618 0.628702 0.619916 0.699201 0.686589 0.640866 0.626988 0.678513 0.618195 0.685317 0.756282 0.744545 0.737202 0.813686 0.803034 0.755158 0.743448 0.796282 0.736106 0.802244 0.871362 0.8614 0.855196 0.929093 0.919993 0.870702 0.860764 0.914207 0.854548 0.919564 0.986829 0.978176 0.97285 1.04436 1.03639 0.986581 0.977945 1.03134 0.972538 1.03632 1.10178 1.09404 1.08927 1.15894 1.15157 1.10168 1.09391 1.14684 1.08911 1.15138 0 0.00561855 0 0.00571705 0 0.0199069 0.00658806 0.0193605 0.00380329 0.0157154 0.042732 0.0431733 0.0714402 0.0352842 0.0723121 0.035944 0.0633597 0.106061 0.107048 0.145183 0.0981377 0.146214 0.0995872 0.137855 0.188206 0.189213 0.234693 0.181576 0.235688 0.182873 0.228938 0.283804 0.28483 0.335474 0.278674 0.336538 0.27984 0.331162 0.388908 0.390054 0.444202 0.38509 0.445391 0.386263 0.441082 0.500553 0.501835 0.558148 0.497782 0.559476 0.499087 0.555945 0.616291 0.617713 0.675228 0.614383 0.676639 0.615787 0.673776 0.734276 0.735738 0.793713 0.733031 0.795156 0.734502 0.792774 0.852852 0.854356 0.912085 0.852074 0.913526 0.853577 0.911556 0.970868 0.972311 1.02956 0.970456 1.03085 0.971852 1.0293 1.08751 1.08879 1.14512 1.08728 1.14626 1.08848 1.14482 0 0.00960219 0 0.0150397 0 0.0275833 0.0107408 0.0385272 0.0206068 0.0238246 0.0516507 0.0651463 0.0814939 0.0459681 0.0964107 0.0621669 0.0747705 0.116266 0.131768 0.155218 0.109422 0.170938 0.126175 0.148727 0.198126 0.213781 0.244141 0.191946 0.259532 0.208144 0.238701 0.293174 0.308192 0.344424 0.288087 0.358981 0.303323 0.340194 0.397807 0.411844 0.452717 0.393847 0.466187 0.408001 0.449535 0.509011 0.521888 0.566267 0.506067 0.578515 0.518937 0.563941 0.6243 0.635977 0.682858 0.62215 0.693909 0.633785 0.681228 0.741735 0.752232 0.800814 0.740279 0.810689 0.750757 0.799826 0.859769 0.869102 0.918642 0.858853 0.927425 0.868215 0.918053 0.977149 0.985486 1.03542 0.97661 1.04322 0.9849 1.03507 1.0931 1.10056 1.15041 1.09274 1.15755 1.10012 1.15007 0 0.0229157 0 0.0338162 0 0.0551953 0.028597 0.0744479 0.0430245 0.0564756 0.0838233 0.106011 0.116996 0.0821381 0.142066 0.105769 0.113412 0.153562 0.180363 0.193184 0.148672 0.221244 0.176395 0.188187 0.236271 0.264873 0.281694 0.230895 0.310362 0.260009 0.276802 0.33006 0.358447 0.380147 0.325158 0.407842 0.353808 0.376036 0.432404 0.459305 0.485788 0.428372 0.511556 0.455364 0.482483 0.540687 0.565427 0.596302 0.537501 0.619744 0.562256 0.593813 0.652927 0.675224 0.709861 0.650513 0.73079 0.672807 0.708079 0.767336 0.787133 0.824865 0.765687 0.843259 0.785462 0.823749 0.882438 0.899796 0.939898 0.88143 0.955963 0.898765 0.93928 0.997199 1.01238 1.05426 0.996551 1.06831 1.01167 1.05379 1.11095 1.12437 1.16754 1.11044 1.18024 1.12374 1.16703 
