# vtk DataFile Version 5.1
vtk output
ASCII

DATASET UNSTRUCTURED_GRID
POINTS 325 float
0 0 0
0.333333 0 0
0.666667 0 0
1 0 0
1.33333 0 0
1.66667 0 0
2 0 0
2.33333 0 0
2.66667 0 0
3 0 0
3.33333 0 0
3.66667 0 0
4 0 0
0 0.25 0
0.333333 0.25 0
0.666667 0.25 0
1 0.25 0
1.33333 0.25 0
1.66667 0.25 0
2 0.25 0
2.33333 0.25 0
2.66667 0.25 0
3 0.25 0
3.33333 0.25 0
3.66667 0.25 0
4 0.25 0
0 0.5 0
0.333333 0.5 0
0.666667 0.5 0
1 0.5 0
1.33333 0.5 0
1.66667 0.5 0
2 0.5 0
2.33333 0.5 0
2.66667 0.5 0
3 0.5 0
3.33333 0.5 0
3.66667 0.5 0
4 0.5 0
0 0.75 0
0.333333 0.75 0
0.666667 0.75 0
1 0.75 0
1.33333 0.75 0
1.66667 0.75 0
2 0.75 0
2.33333 0.75 0
2.66667 0.75 0
3 0.75 0
3.33333 0.75 0
3.66667 0.75 0
4 0.75 0
0 1 0
0.333333 1 0
0.666667 1 0
1 1 0
1.33333 1 0
1.66667 1 0
2 1 0
2.33333 1 0
2.66667 1 0
3 1 0
3.33333 1 0
3.66667 1 0
4 1 0
0 0 0.25
0.333333 0 0.25
0.666667 0 0.25
1 0 0.25
1.33333 0 0.25
1.66667 0 0.25
2 0 0.25
2.33333 0 0.25
2.66667 0 0.25
3 0 0.25
3.33333 0 0.25
3.66667 0 0.25
4 0 0.25
0 0.25 0.25
0.333333 0.25 0.25
0.666667 0.25 0.25
1 0.25 0.25
1.33333 0.25 0.25
1.66667 0.25 0.25
2 0.25 0.25
2.33333 0.25 0.25
2.66667 0.25 0.25
3 0.25 0.25
3.33333 0.25 0.25
3.66667 0.25 0.25
4 0.25 0.25
0 0.5 0.25
0.333333 0.5 0.25
0.666667 0.5 0.25
1 0.5 0.25
1.33333 0.5 0.25
1.66667 0.5 0.25
2 0.5 0.25
2.33333 0.5 0.25
2.66667 0.5 0.25
3 0.5 0.25
3.33333 0.5 0.25
3.66667 0.5 0.25
4 0.5 0.25
0 0.75 0.25
0.333333 0.75 0.25
0.666667 0.75 0.25
1 0.75 0.25
1.33333 0.75 0.25
1.66667 0.75 0.25
2 0.75 0.25
2.33333 0.75 0.25
2.66667 0.75 0.25
3 0.75 0.25
3.33333 0.75 0.25
3.66667 0.75 0.25
4 0.75 0.25
0 1 0.25
0.333333 1 0.25
0.666667 1 0.25
1 1 0.25
1.33333 1 0.25
1.66667 1 0.25
2 1 0.25
2.33333 1 0.25
2.66667 1 0.25
3 1 0.25
3.33333 1 0.25
3.66667 1 0.25
4 1 0.25
0 0 0.5
0.333333 0 0.5
0.666667 0 0.5
1 0 0.5
1.33333 0 0.5
1.66667 0 0.5
2 0 0.5
2.33333 0 0.5
2.66667 0 0.5
3 0 0.5
3.33333 0 0.5
3.66667 0 0.5
4 0 0.5
0 0.25 0.5
0.333333 0.25 0.5
0.666667 0.25 0.5
1 0.25 0.5
1.33333 0.25 0.5
1.66667 0.25 0.5
2 0.25 0.5
2.33333 0.25 0.5
2.66667 0.25 0.5
3 0.25 0.5
3.33333 0.25 0.5
3.66667 0.25 0.5
4 0.25 0.5
0 0.5 0.5
0.333333 0.5 0.5
0.666667 0.5 0.5
1 0.5 0.5
1.33333 0.5 0.5
1.66667 0.5 0.5
2 0.5 0.5
2.33333 0.5 0.5
2.66667 0.5 0.5
3 0.5 0.5
3.33333 0.5 0.5
3.66667 0.5 0.5
4 0.5 0.5
0 0.75 0.5
0.333333 0.75 0.5
0.666667 0.75 0.5
1 0.75 0.5
1.33333 0.75 0.5
1.66667 0.75 0.5
2 0.75 0.5
2.33333 0.75 0.5
2.66667 0.75 0.5
3 0.75 0.5
3.33333 0.75 0.5
3.66667 0.75 0.5
4 0.75 0.5
0 1 0.5
0.333333 1 0.5
0.666667 1 0.5
1 1 0.5
1.33333 1 0.5
1.66667 1 0.5
2 1 0.5
2.33333 1 0.5
2.66667 1 0.5
3 1 0.5
3.33333 1 0.5
3.66667 1 0.5
4 1 0.5
0 0 0.75
0.333333 0 0.75
0.666667 0 0.75
1 0 0.75
1.33333 0 0.75
1.66667 0 0.75
2 0 0.75
2.33333 0 0.75
2.66667 0 0.75
3 0 0.75
3.33333 0 0.75
3.66667 0 0.75
4 0 0.75
0 0.25 0.75
0.333333 0.25 0.75
0.666667 0.25 0.75
1 0.25 0.75
1.33333 0.25 0.75
1.66667 0.25 0.75
2 0.25 0.75
2.33333 0.25 0.75
2.66667 0.25 0.75
3 0.25 0.75
3.33333 0.25 0.75
3.66667 0.25 0.75
4 0.25 0.75
0 0.5 0.75
0.333333 0.5 0.75
0.666667 0.5 0.75
1 0.5 0.75
1.33333 0.5 0.75
1.66667 0.5 0.75
2 0.5 0.75
2.33333 0.5 0.75
2.66667 0.5 0.75
3 0.5 0.75
3.33333 0.5 0.75
3.66667 0.5 0.75
4 0.5 0.75
0 0.75 0.75
0.333333 0.75 0.75
0.666667 0.75 0.75
1 0.75 0.75
1.33333 0.75 0.75
1.66667 0.75 0.75
2 0.75 0.75
2.33333 0.75 0.75
2.66667 0.75 0.75
3 0.75 0.75
3.33333 0.75 0.75
3.66667 0.75 0.75
4 0.75 0.75
0 1 0.75
0.333333 1 0.75
0.666667 1 0.75
1 1 0.75
1.33333 1 0.75
1.66667 1 0.75
2 1 0.75
2.33333 1 0.75
2.66667 1 0.75
3 1 0.75
3.33333 1 0.75
3.66667 1 0.75
4 1 0.75
0 0 1
0.333333 0 1
0.666667 0 1
1 0 1
1.33333 0 1
1.66667 0 1
2 0 1
2.33333 0 1
2.66667 0 1
3 0 1
3.33333 0 1
3.66667 0 1
4 0 1
0 0.25 1
0.333333 0.25 1
0.666667 0.25 1
1 0.25 1
1.33333 0.25 1
1.66667 0.25 1
2 0.25 1
2.33333 0.25 1
2.66667 0.25 1
3 0.25 1
3.33333 0.25 1
3.66667 0.25 1
4 0.25 1
0 0.5 1
0.333333 0.5 1
0.666667 0.5 1
1 0.5 1
1.33333 0.5 1
1.66667 0.5 1
2 0.5 1
2.33333 0.5 1
2.66667 0.5 1
3 0.5 1
3.33333 0.5 1
3.66667 0.5 1
4 0.5 1
0 0.75 1
0.333333 0.75 1
0.666667 0.75 1
1 0.75 1
1.33333 0.75 1
1.66667 0.75 1
2 0.75 1
2.33333 0.75 1
2.66667 0.75 1
3 0.75 1
3.33333 0.75 1
3.66667 0.75 1
4 0.75 1
0 1 1
0.333333 1 1
0.666667 1 1
1 1 1
1.33333 1 1
1.66667 1 1
2 1 1
2.33333 1 1
2.66667 1 1
3 1 1
3.33333 1 1
3.66667 1 1
4 1 1

CELLS 193 1536
OFFSETS vtktypeint64
0 8 16 24 32 40 48 56 64 72 80 88 96 104 112 120 128 136 144 152 160 168 176 184 192 200 208 216 224 232 240 248 256 264 272 280 288 296 304 312 320 328 336 344 352 360 368 376 384 392 400 408 416 424 432 440 448 456 464 472 480 488 496 504 512 520 528 536 544 552 560 568 576 584 592 600 608 616 624 632 640 648 656 664 672 680 688 696 704 712 720 728 736 744 752 760 768 776 784 792 800 808 816 824 832 840 848 856 864 872 880 888 896 904 912 920 928 936 944 952 960 968 976 984 992 1000 1008 1016 1024 1032 1040 1048 1056 1064 1072 1080 1088 1096 1104 1112 1120 1128 1136 1144 1152 1160 1168 1176 1184 1192 1200 1208 1216 1224 1232 1240 1248 1256 1264 1272 1280 1288 1296 1304 1312 1320 1328 1336 1344 1352 1360 1368 1376 1384 1392 1400 1408 1416 1424 1432 1440 1448 1456 1464 1472 1480 1488 1496 1504 1512 1520 1528 1536 
CONNECTIVITY vtktypeint64
0 1 66 65 13 14 79 78 
1 2 67 66 14 15 80 79 
2 3 68 67 15 16 81 80 
3 4 69 68 16 17 82 81 
4 5 70 69 17 18 83 82 
5 6 71 70 18 19 84 83 
6 7 72 71 19 20 85 84 
7 8 73 72 20 21 86 85 
8 9 74 73 21 22 87 86 
9 10 75 74 22 23 88 87 
10 11 76 75 23 24 89 88 
11 12 77 76 24 25 90 89 
13 14 79 78 26 27 92 91 
14 15 80 79 27 28 93 92 
15 16 81 80 28 29 94 93 
16 17 82 81 29 30 95 94 
17 18 83 82 30 31 96 95 
18 19 84 83 31 32 97 96 
19 20 85 84 32 33 98 97 
20 21 86 85 33 34 99 98 
21 22 87 86 34 35 100 99 
22 23 88 87 35 36 101 100 
23 24 89 88 36 37 102 101 
24 25 90 89 37 38 103 102 
26 27 92 91 39 40 105 104 
27 28 93 92 40 41 106 105 
28 29 94 93 41 42 107 106 
29 30 95 94 42 43 108 107 
30 31 96 95 43 44 109 108 
31 32 97 96 44 45 110 109 
32 33 98 97 45 46 111 110 
33 34 99 98 46 47 112 111 
34 35 100 99 47 48 113 112 
35 36 101 100 48 49 114 113 
36 37 102 101 49 50 115 114 
37 38 103 102 50 51 116 115 
39 40 105 104 52 53 118 117 
40 41 106 105 53 54 119 118 
41 42 107 106 54 55 120 119 
42 43 108 107 55 56 121 120 
43 44 109 108 56 57 122 121 
44 45 110 109 57 58 123 122 
45 46 111 110 58 59 124 123 
46 47 112 111 59 60 125 124 
47 48 113 112 60 61 126 125 
48 49 114 113 61 62 127 126 
49 50 115 114 62 63 128 127 
50 51 116 115 63 64 129 128 
65 66 131 130 78 79 144 143 
66 67 132 131 79 80 145 144 
67 68 133 132 80 81 146 145 
68 69 134 133 81 82 147 146 
69 70 135 134 82 83 148 147 
70 71 136 135 83 84 149 148 
71 72 137 136 84 85 150 149 
72 73 138 137 85 86 151 150 
73 74 139 138 86 87 152 151 
74 75 140 139 87 88 153 152 
75 76 141 140 88 89 154 153 
76 77 142 141 89 90 155 154 
78 79 144 143 91 92 157 156 
79 80 145 144 92 93 158 157 
80 81 146 145 93 94 159 158 
81 82 147 146 94 95 160 159 
82 83 148 147 95 96 161 160 
83 84 149 148 96 97 162 161 
84 85 150 149 97 98 163 162 
85 86 151 150 98 99 164 163 
86 87 152 151 99 100 165 164 
87 88 153 152 100 101 166 165 
88 89 154 153 101 102 167 166 
89 90 155 154 102 103 168 167 
91 92 157 156 104 105 170 169 
92 93 158 157 105 106 171 170 
93 94 159 158 106 107 172 171 
94 95 160 159 107 108 173 172 
95 96 161 160 108 109 174 173 
96 97 162 161 109 110 175 174 
97 98 163 162 110 111 176 175 
98 99 164 163 111 112 177 176 
99 100 165 164 112 113 178 177 
100 101 166 165 113 114 179 178 
101 102 167 166 114 115 180 179 
102 103 168 167 115 116 181 180 
104 105 170 169 117 118 183 182 
105 106 171 170 118 119 184 183 
106 107 172 171 119 120 185 184 
107 108 173 172 120 121 186 185 
108 109 174 173 121 122 187 186 
109 110 175 174 122 123 188 187 
110 111 176 175 123 124 189 188 
111 112 177 176 124 125 190 189 
112 113 178 177 125 126 191 190 
113 114 179 178 126 127 192 191 
114 115 180 179 127 128 193 192 
115 116 181 180 128 129 194 193 
130 131 196 195 143 144 209 208 
131 132 197 196 144 145 210 209 
132 133 198 197 145 146 211 210 
133 134 199 198 146 147 212 211 
134 135 200 199 147 148 213 212 
135 136 201 200 148 149 214 213 
136 137 202 201 149 150 215 214 
137 138 203 202 150 151 216 215 
138 139 204 203 151 152 217 216 
139 140 205 204 152 153 218 217 
140 141 206 205 153 154 219 218 
141 142 207 206 154 155 220 219 
143 144 209 208 156 157 222 221 
144 145 210 209 157 158 223 222 
145 146 211 210 158 159 224 223 
146 147 212 211 159 160 225 224 
147 148 213 212 160 161 226 225 
148 149 214 213 161 162 227 226 
149 150 215 214 162 163 228 227 
150 151 216 215 163 164 229 228 
151 152 217 216 164 165 230 229 
152 153 218 217 165 166 231 230 
153 154 219 218 166 167 232 231 
154 155 220 219 167 168 233 232 
156 157 222 221 169 170 235 234 
157 158 223 222 170 171 236 235 
158 159 224 223 171 172 237 236 
159 160 225 224 172 173 238 237 
160 161 226 225 173 174 239 238 
161 162 227 226 174 175 240 239 
162 163 228 227 175 176 241 240 
163 164 229 228 176 177 242 241 
164 165 230 229 177 178 243 242 
165 166 231 230 178 179 244 243 
166 167 232 231 179 180 245 244 
167 168 233 232 180 181 246 245 
169 170 235 234 182 183 248 247 
170 171 236 235 183 184 249 248 
171 172 237 236 184 185 250 249 
172 173 238 237 185 186 251 250 
173 174 239 238 186 187 252 251 
174 175 240 239 187 188 253 252 
175 176 241 240 188 189 254 253 
176 177 242 241 189 190 255 254 
177 178 243 242 190 191 256 255 
178 179 244 243 191 192 257 256 
179 180 245 244 192 193 258 257 
180 181 246 245 193 194 259 258 
195 196 261 260 208 209 274 273 
196 197 262 261 209 210 275 274 
197 198 263 262 210 211 276 275 
198 199 264 263 211 212 277 276 
199 200 265 264 212 213 278 277 
200 201 266 265 213 214 279 278 
201 202 267 266 214 215 280 279 
202 203 268 267 215 216 281 280 
203 204 269 268 216 217 282 281 
204 205 270 269 217 218 283 282 
205 206 271 270 218 219 284 283 
206 207 272 271 219 220 285 284 
208 209 274 273 221 222 287 286 
209 210 275 274 222 223 288 287 
210 211 276 275 223 224 289 288 
211 212 277 276 224 225 290 289 
212 213 278 277 225 226 291 290 
213 214 279 278 226 227 292 291 
214 215 280 279 227 228 293 292 
215 216 281 280 228 229 294 293 
216 217 282 281 229 230 295 294 
217 218 283 282 230 231 296 295 
218 219 284 283 231 232 297 296 
219 220 285 284 232 233 298 297 
221 222 287 286 234 235 300 299 
222 223 288 287 235 236 301 300 
223 224 289 288 236 237 302 301 
224 225 290 289 237 238 303 302 
225 226 291 290 238 239 304 303 
226 227 292 291 239 240 305 304 
227 228 293 292 240 241 306 305 
228 229 294 293 241 242 307 306 
229 230 295 294 242 243 308 307 
230 231 296 295 243 244 309 308 
231 232 297 296 244 245 310 309 
232 233 298 297 245 246 311 310 
234 235 300 299 247 248 313 312 
235 236 301 300 248 249 314 313 
236 237 302 301 249 250 315 314 
237 238 303 302 250 251 316 315 
238 239 304 303 251 252 317 316 
239 240 305 304 252 253 318 317 
240 241 306 305 253 254 319 318 
241 242 307 306 254 255 320 319 
242 243 308 307 255 256 321 320 
243 244 309 308 256 257 322 321 
244 245 310 309 257 258 323 322 
245 246 311 310 258 259 324 323 
CELL_TYPES 192
12 12 12 12 12 12 12 12 12 12 12 12 12 12 12 12 12 12 12 12 12 12 12 12 12 12 12 12 12 12 12 12 12 12 12 12 12 12 12 12 12 12 12 12 12 12 12 12 12 12 12 12 12 12 12 12 12 12 12 12 12 12 12 12 12 12 12 12 12 12 12 12 12 12 12 12 12 12 12 12 12 12 12 12 12 12 12 12 12 12 12 12 12 12 12 12 12 12 12 12 12 12 12 12 12 12 12 12 12 12 12 12 12 12 12 12 12 12 12 12 12 12 12 12 12 12 12 12 12 12 12 12 12 12 12 12 12 12 12 12 12 12 12 12 12 12 12 12 12 12 12 12 12 12 12 12 12 12 12 12 12 12 12 12 12 12 12 12 12 12 12 12 12 12 12 12 12 12 12 12 12 12 12 12 12 12 12 12 12 12 12 12 

POINT_DATA 325
SCALARS weights float 1
LOOKUP_TABLE default
2.60417 5.20833 5.20833 5.20833 5.20833 5.20833 5.20833 5.20833 5.20833 5.20833 5.20833 5.20833 2.60417 5.20833 10.4167 10.4167 10.4167 10.4167 10.4167 10.4167 10.4167 10.4167 10.4167 10.4167 10.4167 5.20833 5.20833 10.4167 10.4167 10.4167 10.4167 10.4167 10.4167 10.4167 10.4167 10.4167 10.4167 10.4167 5.20833 5.20833 10.4167 10.4167 10.4167 10.4167 10.4167 10.4167 10.4167 10.4167 10.4167 10.4167 10.4167 5.20833 2.60417 5.20833 5.20833 5.20833 5.20833 5.20833 5.20833 5.20833 5.20833 5.20833 5.20833 5.20833 2.60417 5.20833 10.4167 10.4167 10.4167 10.4167 10.4167 10.4167 10.4167 10.4167 10.4167 10.4167 10.4167 5.20833 10.4167 20.8333 20.8333 20.8333 20.8333 20.8333 20.8333 20.8333 20.8333 20.8333 20.8333 20.8333 10.4167 10.4167 20.8333 20.8333 20.8333 20.8333 20.8333 20.8333 20.8333 20.8333 20.8333 20.8333 20.8333 10.4167 10.4167 20.8333 20.8333 20.8333 20.8333 20.8333 20.8333 20.8333 20.8333 20.8333 20.8333 20.8333 10.4167 5.20833 10.4167 10.4167 10.4167 10.4167 10.4167 10.4167 10.4167 10.4167 10.4167 10.4167 10.4167 5.20833 5.20833 10.4167 10.4167 10.4167 10.4167 10.4167 10.4167 10.4167 10.4167 10.4167 10.4167 10.4167 5.20833 10.4167 20.8333 20.8333 20.8333 20.8333 20.8333 20.8333 20.8333 20.8333 20.8333 20.8333 20.8333 10.4167 10.4167 20.8333 20.8333 20.8333 20.8333 20.8333 20.8333 20.8333 20.8333 20.8333 20.8333 20.8333 10.4167 10.4167 20.8333 20.8333 20.8333 20.8333 20.8333 20.8333 20.8333 20.8333 20.8333 20.8333 20.8333 10.4167 5.20833 10.4167 10.4167 10.4167 10.4167 10.4167 10.4167 10.4167 10.4167 10.4167 10.4167 10.4167 5.20833 5.20833 10.4167 10.4167 10.4167 10.4167 10.4167 10.4167 10.4167 10.4167 10.4167 10.4167 10.4167 5.20833 10.4167 20.8333 20.8333 20.8333 20.8333 20.8333 20.8333 20.8333 20.8333 20.8333 20.8333 20.8333 10.4167 10.4167 20.8333 20.8333 20.8333 20.8333 20.8333 20.8333 20.8333 20.8333 20.8333 20.8333 20.8333 10.4167 10.4167 20.8333 20.8333 20.8333 20.8333 20.8333 20.8333 20.8333 20.8333 20.8333 20.8333 20.8333 10.4167 5.20833 10.4167 10.4167 10.4167 10.4167 10.4167 10.4167 10.4167 10.4167 10.4167 10.4167 10.4167 5.20833 2.60417 5.20833 5.20833 5.20833 5.20833 5.20833 5.20833 5.20833 5.20833 5.20833 5.20833 5.20833 2.60417 5.20833 10.4167 10.4167 10.4167 10.4167 10.4167 10.4167 10.4167 10.4167 10.4167 10.4167 10.4167 5.20833 5.20833 10.4167 10.4167 10.4167 10.4167 10.4167 10.4167 10.4167 10.4167 10.4167 10.4167 10.4167 5.20833 5.20833 10.4167 10.4167 10.4167 10.4167 10.4167 10.4167 10.4167 10.4167 10.4167 10.4167 10.4167 5.20833 2.60417 5.20833 5.20833 5.20833 5.20833 5.20833 5.20833 5.20833 5.20833 5.20833 5.20833 5.20833 2.60417 
VECTORS u float
0.001 0 0  -0.112939 -0.0476465 -0.0345335  -0.212393 -0.153943 -0.0325488  -0.3199 -0.30864 -0.0249873  -0.434427 -0.495417 -0.0180005  -0.555361 -0.707385 -0.0130215  -0.682687 -0.938541 -0.00894421  -0.81471 -1.18424 -0.00566415  -0.949676 -1.4403 -0.00314511  -1.08595 -1.70253 -0.00158096  -1.22197 -1.96865 0.000151405  -1.35656 -2.23653 0.000940998  -1.49046 -2.50372 0.000878541  0.001 0 0  -0.0414529 -0.0459817 -0.0190399  -0.0978726 -0.173921 -0.0165876  -0.174306 -0.347425 -0.011941  -0.268418 -0.551499 -0.00803413  -0.376264 -0.777768 -0.00528754  -0.494278 -1.02007 -0.00312927  -0.620684 -1.27383 -0.0015785  -0.752361 -1.53501 -0.000391567  -0.886736 -1.80104 0.000313015  -1.02178 -2.06855 0.00122585  -1.15671 -2.33671 0.00124168  -1.29008 -2.60399 0.0017995  0.001 0 0  0.00814304 -0.0557303 -0.000625262  -0.00360811 -0.195559 0.000409961  -0.0458183 -0.384633 0.00160352  -0.114974 -0.60435 0.00205145  -0.205928 -0.844773 0.00253432  -0.312934 -1.09829 0.00275077  -0.43166 -1.36048 0.0024202  -0.558307 -1.62789 0.00250718  -0.68977 -1.89684 0.00225492  -0.823355 -2.16675 0.00207974  -0.957341 -2.43587 0.00197035  -1.09096 -2.70311 0.00227945  0.001 0 0  0.0537694 -0.07408 0.0199968  0.0854205 -0.225552 0.0188202  0.0772337 -0.426789 0.0160092  0.0336549 -0.6608 0.0130423  -0.0392981 -0.914092 0.0106891  -0.134072 -1.17791 0.00840488  -0.244631 -1.44792 0.00644395  -0.365761 -1.72041 0.00514504  -0.493739 -1.99312 0.00417767  -0.625529 -2.26492 0.00335866  -0.758419 -2.53473 0.00263563  -0.891364 -2.80253 0.0024741  0.001 0 0  0.111024 -0.106168 0.0421812  0.182371 -0.263603 0.0357128  0.205594 -0.478867 0.0301352  0.185871 -0.725894 0.0240539  0.129708 -0.990425 0.0187129  0.0468328 -1.26362 0.0143194  -0.0558698 -1.54032 0.0105061  -0.171803 -1.81737 0.00736533  -0.296414 -2.09244 0.00601174  -0.4267 -2.36509 0.0043174  -0.559077 -2.63471 0.00329149  -0.692253 -2.9023 0.0024517  0.001 0 0  -0.110483 -0.0588995 -0.0150942  -0.220069 -0.164779 -0.0172658  -0.328499 -0.31553 -0.0131155  -0.441275 -0.499774 -0.00942981  -0.561157 -0.710448 -0.00672248  -0.686854 -0.94076 -0.00460188  -0.817716 -1.18544 -0.00294684  -0.951764 -1.44068 -0.00139928  -1.08745 -1.70326 -0.000635594  -1.22237 -1.96905 0.000364304  -1.35769 -2.23637 0.000955641  -1.49074 -2.50417 0.00111973  0.001 0 0  -0.0405414 -0.0571147 -0.00837682  -0.104349 -0.18433 -0.00911492  -0.182504 -0.354639 -0.00627981  -0.275077 -0.556279 -0.0040054  -0.381365 -0.781095 -0.00261348  -0.498708 -1.0224 -0.00136717  -0.623531 -1.27523 -0.000496879  -0.754261 -1.5362 -1.36048e-05  -0.888108 -1.8016 0.000555158  -1.02264 -2.06858 0.00106177  -1.15731 -2.33696 0.00123408  -1.29112 -2.60399 0.00173029  0.001 0 0  0.0046286 -0.0670527 -0.000714481  -0.00967544 -0.20658 -6.39707e-05  -0.0523531 -0.393121 0.00064069  -0.120777 -0.610339 0.000979573  -0.210546 -0.848923 0.00150868  -0.31628 -1.10119 0.00142255  -0.434077 -1.36258 0.00150889  -0.560007 -1.62898 0.00160605  -0.691108 -1.8979 0.00160554  -0.823871 -2.16721 0.0018785  -0.958258 -2.43623 0.00187761  -1.09129 -2.70318 0.0020189  0.001 0 0  0.0470563 -0.0855702 0.00847709  0.0804258 -0.237199 0.00944027  0.0723259 -0.4362 0.00804779  0.0291257 -0.667841 0.00651118  -0.0431222 -0.919101 0.00553  -0.136592 -1.18145 0.0045186  -0.246428 -1.45085 0.00355333  -0.367033 -1.72208 0.00308454  -0.49479 -1.99451 0.00273818  -0.625804 -2.26611 0.00254932  -0.758739 -2.53542 0.00231889  -0.891852 -2.8027 0.00225696  0.001 0 0  0.104218 -0.118353 0.0176202  0.177321 -0.275339 0.0184162  0.201184 -0.487832 0.0149589  0.181709 -0.732831 0.0120818  0.126506 -0.9958 0.0095883  0.0445006 -1.26759 0.00749704  -0.0573468 -1.54343 0.00569394  -0.172882 -1.81881 0.00450382  -0.297358 -2.0936 0.00388288  -0.427187 -2.36593 0.00332385  -0.559138 -2.63517 0.00289559  -0.691941 -2.90268 0.00258455  0.001 0 0  -0.113141 -0.0617691 -0.000250101  -0.221463 -0.168769 -0.000326067  -0.330809 -0.318769 3.33786e-06  -0.443674 -0.502019 -0.000253916  -0.562778 -0.711885 -7.7337e-05  -0.68839 -0.941441 -5.54025e-05  -0.818943 -1.18633 2.98619e-05  -0.952198 -1.44121 0.000427127  -1.08815 -1.70329 0.00028187  -1.22298 -1.96935 0.000939548  -1.35728 -2.23674 0.000953674  -1.49099 -2.50383 0.00169212  0.001 0 0  -0.0412589 -0.0599246 -2.33948e-05  -0.105745 -0.188186 -0.000108063  -0.184944 -0.35732 -4.10676e-05  -0.277527 -0.558168 6.13332e-05  -0.38356 -0.782348 0.00020045  -0.49976 -1.02314 0.000292182  -0.625038 -1.2757 0.000397146  -0.755003 -1.53667 0.000389874  -0.88827 -1.80149 0.000796199  -1.02368 -2.06855 0.000929832  -1.15767 -2.33709 0.00143492  -1.29104 -2.60383 0.00169349  0.001 0 0  0.00375599 -0.0694443 5.51343e-05  -0.0112968 -0.210028 0.000109196  -0.0542344 -0.396023 4.64916e-05  -0.122794 -0.61253 0.000183761  -0.212201 -0.85047 0.000332892  -0.317559 -1.10216 0.00032568  -0.434716 -1.36321 0.000462055  -0.561185 -1.62937 0.000744045  -0.691189 -1.8979 0.00114709  -0.824647 -2.1678 0.00155365  -0.958341 -2.43626 0.00194776  -1.09127 -2.70319 0.00179833  0.001 0 0  0.0463331 -0.0876812 0.0001598  0.0782462 -0.240656 0.000300705  0.0708919 -0.439341 0.000418186  0.0274389 -0.670155 0.00011152  -0.0444032 -0.920867 0.000407517  -0.137717 -1.18292 0.000535011  -0.247023 -1.45145 0.00084275  -0.367542 -1.72319 0.00110185  -0.494915 -1.99511 0.00145793  -0.626272 -2.26623 0.00188798  -0.759087 -2.53559 0.00219905  -0.89215 -2.80282 0.00213236  0.001 0 0  0.103338 -0.12152 0.000338316  0.175281 -0.278571 0.000385344  0.199489 -0.490856 0.000436962  0.18005 -0.735038 0.000426531  0.124933 -0.997332 0.000611961  0.0433812 -1.26859 0.00067842  -0.0580812 -1.54405 0.000895798  -0.173503 -1.81986 0.00144571  -0.297701 -2.09402 0.00183654  -0.427444 -2.36614 0.00197685  -0.559408 -2.63529 0.00227159  -0.692605 -2.90313 0.00258023  0.001 0 0  -0.110677 -0.0591188 0.0147814  -0.220116 -0.165028 0.0168503  -0.328674 -0.315733 0.012861  -0.441658 -0.500212 0.00920701  -0.561545 -0.710457 0.00677294  -0.687437 -0.940754 0.00456667  -0.818586 -1.18552 0.00311214  -0.952259 -1.44066 0.00185496  -1.08806 -1.70323 0.0012669  -1.223 -1.96922 0.0012908  -1.35804 -2.23673 0.00145084  -1.49159 -2.50402 0.00171524  0.001 0 0  -0.0406226 -0.057226 0.00821733  -0.10454 -0.18462 0.0088771  -0.182479 -0.354842 0.00624973  -0.275615 -0.556441 0.0042277  -0.381879 -0.781036 0.00286502  -0.499034 -1.02251 0.00198519  -0.6242 -1.27567 0.00121403  -0.754846 -1.53584 0.00109363  -0.88893 -1.80162 0.00109577  -1.02344 -2.06884 0.00120777  -1.15794 -2.33683 0.001513  -1.2916 -2.60387 0.00174725  0.001 0 0  0.00463673 -0.0671457 0.000921547  -0.00982541 -0.206831 0.000283539  -0.0525591 -0.393314 -0.000386953  -0.120924 -0.610542 -0.000644445  -0.210935 -0.849031 -0.000767529  -0.316811 -1.10125 -0.000725865  -0.434773 -1.36254 -0.000259697  -0.560692 -1.62881 -1.508e-05  -0.692142 -1.89765 0.000762343  -0.82469 -2.16704 0.00104213  -0.958447 -2.43611 0.00151217  -1.09194 -2.70346 0.00202084  0.001 0 0  0.0470015 -0.0857223 -0.00802749  0.0803664 -0.237398 -0.00899398  0.0722369 -0.436584 -0.00732905  0.0287807 -0.66805 -0.00601196  -0.0434672 -0.919135 -0.00456333  -0.136957 -1.18182 -0.00349796  -0.246961 -1.45092 -0.00208414  -0.36756 -1.72214 -0.000778317  -0.495523 -1.99488 0.000199318  -0.62655 -2.2659 0.000967264  -0.759223 -2.53514 0.00178939  -0.892424 -2.80287 0.0022338  0.001 0 0  0.104243 -0.118559 -0.0171452  0.177288 -0.275494 -0.017564  0.201077 -0.488075 -0.0140786  0.18142 -0.733046 -0.0112836  0.126176 -0.996064 -0.00858843  0.0442319 -1.26778 -0.00600219  -0.0576317 -1.543 -0.00380164  -0.173574 -1.81907 -0.00163072  -0.298189 -2.09384 -0.000245512  -0.427795 -2.36542 0.00103915  -0.559615 -2.63509 0.00173801  -0.692835 -2.90276 0.00249338  0.001 0 0  -0.113094 -0.0479491 0.0341915  -0.212773 -0.154559 0.0320796  -0.320251 -0.309164 0.0246204  -0.434826 -0.495677 0.0181972  -0.556061 -0.707785 0.0129825  -0.683497 -0.938881 0.00913215  -0.816025 -1.18483 0.00571036  -0.950862 -1.44028 0.0035696  -1.0874 -1.70285 0.00205708  -1.22287 -1.96868 0.00149119  -1.35799 -2.23681 0.0015552  -1.49091 -2.50387 0.00191391  0.001 0 0  -0.0414798 -0.0463692 0.0188538  -0.0980697 -0.174401 0.0164337  -0.174897 -0.347924 0.0119665  -0.268694 -0.551869 0.00825202  -0.376651 -0.77803 0.00575256  -0.495162 -1.02048 0.00352871  -0.621955 -1.27393 0.002442  -0.753604 -1.53527 0.00160527  -0.888159 -1.80078 0.00121713  -1.02267 -2.06872 0.00133491  -1.15785 -2.33653 0.0016073  -1.29179 -2.60389 0.00160754  0.001 0 0  0.00798938 -0.0560767 0.000913143  -0.0038808 -0.196027 -0.000156283  -0.0461795 -0.385107 -0.00131792  -0.115645 -0.604633 -0.0016036  -0.206452 -0.845057 -0.00168663  -0.313608 -1.09849 -0.0018546  -0.432529 -1.36085 -0.00116467  -0.559493 -1.62774 -0.000746369  -0.690747 -1.89725 0.000250697  -0.824356 -2.16675 0.000538349  -0.958543 -2.43609 0.00112498  -1.09182 -2.70305 0.00202525  0.001 0 0  0.0536654 -0.0743174 -0.0195751  0.085259 -0.22596 -0.0183012  0.0769044 -0.427248 -0.0153877  0.0331712 -0.661118 -0.0123571  -0.0398707 -0.914256 -0.00969183  -0.134849 -1.1781 -0.0073604  -0.245404 -1.4479 -0.00512707  -0.367402 -1.72063 -0.00277483  -0.495383 -1.99286 -0.000990093  -0.626411 -2.26487 4.12464e-05  -0.759844 -2.53466 0.00119281  -0.892799 -2.80248 0.00214338  0.001 0 0  0.110972 -0.106307 -0.0416502  0.182203 -0.26416 -0.034894  0.205475 -0.479211 -0.0294365  0.185379 -0.726134 -0.0231903  0.129105 -0.990535 -0.017702  0.0461211 -1.26383 -0.0127959  -0.0567224 -1.54074 -0.00846565  -0.172895 -1.81708 -0.00462765  -0.298238 -2.09226 -0.00236797  -0.427928 -2.36494 -0.000260413  -0.559671 -2.63484 0.00120342  -0.693194 -2.90233 0.00239587  
