# vtk DataFile Version 5.1
vtk output
ASCII

DATASET UNSTRUCTURED_GRID
POINTS 14161 float
0 0 0
0.0625 0 0
0.125 0 0
0.1875 0 0
0.25 0 0
0.3125 0 0
0.375 0 0
0.4375 0 0
0.5 0 0
0.5625 0 0
0.625 0 0
0.6875 0 0
0.75 0 0
0.8125 0 0
0.875 0 0
0.9375 0 0
1 0 0
1.0625 0 0
1.125 0 0
1.1875 0 0
1.25 0 0
1.3125 0 0
1.375 0 0
1.4375 0 0
1.5 0 0
1.5625 0 0
1.625 0 0
1.6875 0 0
1.75 0 0
1.8125 0 0
1.875 0 0
1.9375 0 0
2 0 0
2.0625 0 0
2.125 0 0
2.1875 0 0
2.25 0 0
2.3125 0 0
2.375 0 0
2.4375 0 0
2.5 0 0
2.5625 0 0
2.625 0 0
2.6875 0 0
2.75 0 0
2.8125 0 0
2.875 0 0
2.9375 0 0
3 0 0
0 0.0625 0
0.0625 0.0625 0
0.125 0.0625 0
0.1875 0.0625 0
0.25 0.0625 0
0.3125 0.0625 0
0.375 0.0625 0
0.4375 0.0625 0
0.5 0.0625 0
0.5625 0.0625 0
0.625 0.0625 0
0.6875 0.0625 0
0.75 0.0625 0
0.8125 0.0625 0
0.875 0.0625 0
0.9375 0.0625 0
1 0.0625 0
1.0625 0.0625 0
1.125 0.0625 0
1.1875 0.0625 0
1.25 0.0625 0
1.3125 0.0625 0
1.375 0.0625 0
1.4375 0.0625 0
1.5 0.0625 0
1.5625 0.0625 0
1.625 0.0625 0
1.6875 0.0625 0
1.75 0.0625 0
1.8125 0.0625 0
1.875 0.0625 0
1.9375 0.0625 0
2 0.0625 0
2.0625 0.0625 0
2.125 0.0625 0
2.1875 0.0625 0
2.25 0.0625 0
2.3125 0.0625 0
2.375 0.0625 0
2.4375 0.0625 0
2.5 0.0625 0
2.5625 0.0625 0
2.625 0.0625 0
2.6875 0.0625 0
2.75 0.0625 0
2.8125 0.0625 0
2.875 0.0625 0
2.9375 0.0625 0
3 0.0625 0
0 0.125 0
0.0625 0.125 0
0.125 0.125 0
0.1875 0.125 0
0.25 0.125 0
0.3125 0.125 0
0.375 0.125 0
0.4375 0.125 0
0.5 0.125 0
0.5625 0.125 0
0.625 0.125 0
0.6875 0.125 0
0.75 0.125 0
0.8125 0.125 0
0.875 0.125 0
0.9375 0.125 0
1 0.125 0
1.0625 0.125 0
1.125 0.125 0
1.1875 0.125 0
1.25 0.125 0
1.3125 0.125 0
1.375 0.125 0
1.4375 0.125 0
1.5 0.125 0
1.5625 0.125 0
1.625 0.125 0
1.6875 0.125 0
1.75 0.125 0
1.8125 0.125 0
1.875 0.125 0
1.9375 0.125 0
2 0.125 0
2.0625 0.125 0
2.125 0.125 0
2.1875 0.125 0
2.25 0.125 0
2.3125 0.125 0
2.375 0.125 0
2.4375 0.125 0
2.5 0.125 0
2.5625 0.125 0
2.625 0.125 0
2.6875 0.125 0
2.75 0.125 0
2.8125 0.125 0
2.875 0.125 0
2.9375 0.125 0
3 0.125 0
0 0.1875 0
0.0625 0.1875 0
0.125 0.1875 0
0.1875 0.1875 0
0.25 0.1875 0
0.3125 0.1875 0
0.375 0.1875 0
0.4375 0.1875 0
0.5 0.1875 0
0.5625 0.1875 0
0.625 0.1875 0
0.6875 0.1875 0
0.75 0.1875 0
0.8125 0.1875 0
0.875 0.1875 0
0.9375 0.1875 0
1 0.1875 0
1.0625 0.1875 0
1.125 0.1875 0
1.1875 0.1875 0
1.25 0.1875 0
1.3125 0.1875 0
1.375 0.1875 0
1.4375 0.1875 0
1.5 0.1875 0
1.5625 0.1875 0
1.625 0.1875 0
1.6875 0.1875 0
1.75 0.1875 0
1.8125 0.1875 0
1.875 0.1875 0
1.9375 0.1875 0
2 0.1875 0
2.0625 0.1875 0
2.125 0.1875 0
2.1875 0.1875 0
2.25 0.1875 0
2.3125 0.1875 0
2.375 0.1875 0
2.4375 0.1875 0
2.5 0.1875 0
2.5625 0.1875 0
2.625 0.1875 0
2.6875 0.1875 0
2.75 0.1875 0
2.8125 0.1875 0
2.875 0.1875 0
2.9375 0.1875 0
3 0.1875 0
0 0.25 0
0.0625 0.25 0
0.125 0.25 0
0.1875 0.25 0
0.25 0.25 0
0.3125 0.25 0
0.375 0.25 0
0.4375 0.25 0
0.5 0.25 0
0.5625 0.25 0
0.625 0.25 0
0.6875 0.25 0
0.75 0.25 0
0.8125 0.25 0
0.875 0.25 0
0.9375 0.25 0
1 0.25 0
1.0625 0.25 0
1.125 0.25 0
1.1875 0.25 0
1.25 0.25 0
1.3125 0.25 0
1.375 0.25 0
1.4375 0.25 0
1.5 0.25 0
1.5625 0.25 0
1.625 0.25 0
1.6875 0.25 0
1.75 0.25 0
1.8125 0.25 0
1.875 0.25 0
1.9375 0.25 0
2 0.25 0
2.0625 0.25 0
2.125 0.25 0
2.1875 0.25 0
2.25 0.25 0
2.3125 0.25 0
2.375 0.25 0
2.4375 0.25 0
2.5 0.25 0
2.5625 0.25 0
2.625 0.25 0
2.6875 0.25 0
2.75 0.25 0
2.8125 0.25 0
2.875 0.25 0
2.9375 0.25 0
3 0.25 0
0 0.3125 0
0.0625 0.3125 0
0.125 0.3125 0
0.1875 0.3125 0
0.25 0.3125 0
0.3125 0.3125 0
0.375 0.3125 0
0.4375 0.3125 0
0.5 0.3125 0
0.5625 0.3125 0
0.625 0.3125 0
0.6875 0.3125 0
0.75 0.3125 0
0.8125 0.3125 0
0.875 0.3125 0
0.9375 0.3125 0
1 0.3125 0
1.0625 0.3125 0
1.125 0.3125 0
1.1875 0.3125 0
1.25 0.3125 0
1.3125 0.3125 0
1.375 0.3125 0
1.4375 0.3125 0
1.5 0.3125 0
1.5625 0.3125 0
1.625 0.3125 0
1.6875 0.3125 0
1.75 0.3125 0
1.8125 0.3125 0
1.875 0.3125 0
1.9375 0.3125 0
2 0.3125 0
2.0625 0.3125 0
2.125 0.3125 0
2.1875 0.3125 0
2.25 0.3125 0
2.3125 0.3125 0
2.375 0.3125 0
2.4375 0.3125 0
2.5 0.3125 0
2.5625 0.3125 0
2.625 0.3125 0
2.6875 0.3125 0
2.75 0.3125 0
2.8125 0.3125 0
2.875 0.3125 0
2.9375 0.3125 0
3 0.3125 0
0 0.375 0
0.0625 0.375 0
0.125 0.375 0
0.1875 0.375 0
0.25 0.375 0
0.3125 0.375 0
0.375 0.375 0
0.4375 0.375 0
0.5 0.375 0
0.5625 0.375 0
0.625 0.375 0
0.6875 0.375 0
0.75 0.375 0
0.8125 0.375 0
0.875 0.375 0
0.9375 0.375 0
1 0.375 0
1.0625 0.375 0
1.125 0.375 0
1.1875 0.375 0
1.25 0.375 0
1.3125 0.375 0
1.375 0.375 0
1.4375 0.375 0
1.5 0.375 0
1.5625 0.375 0
1.625 0.375 0
1.6875 0.375 0
1.75 0.375 0
1.8125 0.375 0
1.875 0.375 0
1.9375 0.375 0
2 0.375 0
2.0625 0.375 0
2.125 0.375 0
2.1875 0.375 0
2.25 0.375 0
2.3125 0.375 0
2.375 0.375 0
2.4375 0.375 0
2.5 0.375 0
2.5625 0.375 0
2.625 0.375 0
2.6875 0.375 0
2.75 0.375 0
2.8125 0.375 0
2.875 0.375 0
2.9375 0.375 0
3 0.375 0
0 0.4375 0
0.0625 0.4375 0
0.125 0.4375 0
0.1875 0.4375 0
0.25 0.4375 0
0.3125 0.4375 0
0.375 0.4375 0
0.4375 0.4375 0
0.5 0.4375 0
0.5625 0.4375 0
0.625 0.4375 0
0.6875 0.4375 0
0.75 0.4375 0
0.8125 0.4375 0
0.875 0.4375 0
0.9375 0.4375 0
1 0.4375 0
1.0625 0.4375 0
1.125 0.4375 0
1.1875 0.4375 0
1.25 0.4375 0
1.3125 0.4375 0
1.375 0.4375 0
1.4375 0.4375 0
1.5 0.4375 0
1.5625 0.4375 0
1.625 0.4375 0
1.6875 0.4375 0
1.75 0.4375 0
1.8125 0.4375 0
1.875 0.4375 0
1.9375 0.4375 0
2 0.4375 0
2.0625 0.4375 0
2.125 0.4375 0
2.1875 0.4375 0
2.25 0.4375 0
2.3125 0.4375 0
2.375 0.4375 0
2.4375 0.4375 0
2.5 0.4375 0
2.5625 0.4375 0
2.625 0.4375 0
2.6875 0.4375 0
2.75 0.4375 0
2.8125 0.4375 0
2.875 0.4375 0
2.9375 0.4375 0
3 0.4375 0
0 0.5 0
0.0625 0.5 0
0.125 0.5 0
0.1875 0.5 0
0.25 0.5 0
0.3125 0.5 0
0.375 0.5 0
0.4375 0.5 0
0.5 0.5 0
0.5625 0.5 0
0.625 0.5 0
0.6875 0.5 0
0.75 0.5 0
0.8125 0.5 0
0.875 0.5 0
0.9375 0.5 0
1 0.5 0
1.0625 0.5 0
1.125 0.5 0
1.1875 0.5 0
1.25 0.5 0
1.3125 0.5 0
1.375 0.5 0
1.4375 0.5 0
1.5 0.5 0
1.5625 0.5 0
1.625 0.5 0
1.6875 0.5 0
1.75 0.5 0
1.8125 0.5 0
1.875 0.5 0
1.9375 0.5 0
2 0.5 0
2.0625 0.5 0
2.125 0.5 0
2.1875 0.5 0
2.25 0.5 0
2.3125 0.5 0
2.375 0.5 0
2.4375 0.5 0
2.5 0.5 0
2.5625 0.5 0
2.625 0.5 0
2.6875 0.5 0
2.75 0.5 0
2.8125 0.5 0
2.875 0.5 0
2.9375 0.5 0
3 0.5 0
0 0.5625 0
0.0625 0.5625 0
0.125 0.5625 0
0.1875 0.5625 0
0.25 0.5625 0
0.3125 0.5625 0
0.375 0.5625 0
0.4375 0.5625 0
0.5 0.5625 0
0.5625 0.5625 0
0.625 0.5625 0
0.6875 0.5625 0
0.75 0.5625 0
0.8125 0.5625 0
0.875 0.5625 0
0.9375 0.5625 0
1 0.5625 0
1.0625 0.5625 0
1.125 0.5625 0
1.1875 0.5625 0
1.25 0.5625 0
1.3125 0.5625 0
1.375 0.5625 0
1.4375 0.5625 0
1.5 0.5625 0
1.5625 0.5625 0
1.625 0.5625 0
1.6875 0.5625 0
1.75 0.5625 0
1.8125 0.5625 0
1.875 0.5625 0
1.9375 0.5625 0
2 0.5625 0
2.0625 0.5625 0
2.125 0.5625 0
2.1875 0.5625 0
2.25 0.5625 0
2.3125 0.5625 0
2.375 0.5625 0
2.4375 0.5625 0
2.5 0.5625 0
2.5625 0.5625 0
2.625 0.5625 0
2.6875 0.5625 0
2.75 0.5625 0
2.8125 0.5625 0
2.875 0.5625 0
2.9375 0.5625 0
3 0.5625 0
0 0.625 0
0.0625 0.625 0
0.125 0.625 0
0.1875 0.625 0
0.25 0.625 0
0.3125 0.625 0
0.375 0.625 0
0.4375 0.625 0
0.5 0.625 0
0.5625 0.625 0
0.625 0.625 0
0.6875 0.625 0
0.75 0.625 0
0.8125 0.625 0
0.875 0.625 0
0.9375 0.625 0
1 0.625 0
1.0625 0.625 0
1.125 0.625 0
1.1875 0.625 0
1.25 0.625 0
1.3125 0.625 0
1.375 0.625 0
1.4375 0.625 0
1.5 0.625 0
1.5625 0.625 0
1.625 0.625 0
1.6875 0.625 0
1.75 0.625 0
1.8125 0.625 0
1.875 0.625 0
1.9375 0.625 0
2 0.625 0
2.0625 0.625 0
2.125 0.625 0
2.1875 0.625 0
2.25 0.625 0
2.3125 0.625 0
2.375 0.625 0
2.4375 0.625 0
2.5 0.625 0
2.5625 0.625 0
2.625 0.625 0
2.6875 0.625 0
2.75 0.625 0
2.8125 0.625 0
2.875 0.625 0
2.9375 0.625 0
3 0.625 0
0 0.6875 0
0.0625 0.6875 0
0.125 0.6875 0
0.1875 0.6875 0
0.25 0.6875 0
0.3125 0.6875 0
0.375 0.6875 0
0.4375 0.6875 0
0.5 0.6875 0
0.5625 0.6875 0
0.625 0.6875 0
0.6875 0.6875 0
0.75 0.6875 0
0.8125 0.6875 0
0.875 0.6875 0
0.9375 0.6875 0
1 0.6875 0
1.0625 0.6875 0
1.125 0.6875 0
1.1875 0.6875 0
1.25 0.6875 0
1.3125 0.6875 0
1.375 0.6875 0
1.4375 0.6875 0
1.5 0.6875 0
1.5625 0.6875 0
1.625 0.6875 0
1.6875 0.6875 0
1.75 0.6875 0
1.8125 0.6875 0
1.875 0.6875 0
1.9375 0.6875 0
2 0.6875 0
2.0625 0.6875 0
2.125 0.6875 0
2.1875 0.6875 0
2.25 0.6875 0
2.3125 0.6875 0
2.375 0.6875 0
2.4375 0.6875 0
2.5 0.6875 0
2.5625 0.6875 0
2.625 0.6875 0
2.6875 0.6875 0
2.75 0.6875 0
2.8125 0.6875 0
2.875 0.6875 0
2.9375 0.6875 0
3 0.6875 0
0 0.75 0
0.0625 0.75 0
0.125 0.75 0
0.1875 0.75 0
0.25 0.75 0
0.3125 0.75 0
0.375 0.75 0
0.4375 0.75 0
0.5 0.75 0
0.5625 0.75 0
0.625 0.75 0
0.6875 0.75 0
0.75 0.75 0
0.8125 0.75 0
0.875 0.75 0
0.9375 0.75 0
1 0.75 0
1.0625 0.75 0
1.125 0.75 0
1.1875 0.75 0
1.25 0.75 0
1.3125 0.75 0
1.375 0.75 0
1.4375 0.75 0
1.5 0.75 0
1.5625 0.75 0
1.625 0.75 0
1.6875 0.75 0
1.75 0.75 0
1.8125 0.75 0
1.875 0.75 0
1.9375 0.75 0
2 0.75 0
2.0625 0.75 0
2.125 0.75 0
2.1875 0.75 0
2.25 0.75 0
2.3125 0.75 0
2.375 0.75 0
2.4375 0.75 0
2.5 0.75 0
2.5625 0.75 0
2.625 0.75 0
2.6875 0.75 0
2.75 0.75 0
2.8125 0.75 0
2.875 0.75 0
2.9375 0.75 0
3 0.75 0
0 0.8125 0
0.0625 0.8125 0
0.125 0.8125 0
0.1875 0.8125 0
0.25 0.8125 0
0.3125 0.8125 0
0.375 0.8125 0
0.4375 0.8125 0
0.5 0.8125 0
0.5625 0.8125 0
0.625 0.8125 0
0.6875 0.8125 0
0.75 0.8125 0
0.8125 0.8125 0
0.875 0.8125 0
0.9375 0.8125 0
1 0.8125 0
1.0625 0.8125 0
1.125 0.8125 0
1.1875 0.8125 0
1.25 0.8125 0
1.3125 0.8125 0
1.375 0.8125 0
1.4375 0.8125 0
1.5 0.8125 0
1.5625 0.8125 0
1.625 0.8125 0
1.6875 0.8125 0
1.75 0.8125 0
1.8125 0.8125 0
1.875 0.8125 0
1.9375 0.8125 0
2 0.8125 0
2.0625 0.8125 0
2.125 0.8125 0
2.1875 0.8125 0
2.25 0.8125 0
2.3125 0.8125 0
2.375 0.8125 0
2.4375 0.8125 0
2.5 0.8125 0
2.5625 0.8125 0
2.625 0.8125 0
2.6875 0.8125 0
2.75 0.8125 0
2.8125 0.8125 0
2.875 0.8125 0
2.9375 0.8125 0
3 0.8125 0
0 0.875 0
0.0625 0.875 0
0.125 0.875 0
0.1875 0.875 0
0.25 0.875 0
0.3125 0.875 0
0.375 0.875 0
0.4375 0.875 0
0.5 0.875 0
0.5625 0.875 0
0.625 0.875 0
0.6875 0.875 0
0.75 0.875 0
0.8125 0.875 0
0.875 0.875 0
0.9375 0.875 0
1 0.875 0
1.0625 0.875 0
1.125 0.875 0
1.1875 0.875 0
1.25 0.875 0
1.3125 0.875 0
1.375 0.875 0
1.4375 0.875 0
1.5 0.875 0
1.5625 0.875 0
1.625 0.875 0
1.6875 0.875 0
1.75 0.875 0
[...]
POINT_DATA 14161
SCALARS weights float 1
LOOKUP_TABLE default
0.00305176 0.00610352 0.00610352 0.00610352 0.00610352 0.00610352 0.00610352 0.00610352 0.00610351 0.00610351 0.00610352 0.00610352 0.00610352 0.00610352 0.00610351 0.00610351 0.00610352 0.00610351 0.00610351 0.00610352 0.00610352 0.00610352 0.00610352 0.00610351 0.00610352 0.00610352 0.00610351 0.00610352 0.00610352 0.00610351 0.00610352 0.00610352 0.00610352 0.00610351 0.00610351 0.00610351 0.00610352 0.00610352 0.00610351 0.00610352 0.00610352 0.00610352 0.00610351 0.00610351 0.00610351 0.00610352 0.00610352 0.00610351 0.00305176 0.00610352 0.012207 0.012207 0.012207 0.012207 0.012207 0.012207 0.012207 0.012207 0.012207 0.012207 0.012207 0.012207 0.012207 0.012207 0.012207 0.012207 0.012207 0.012207 0.012207 0.012207 0.012207 0.012207 0.012207 0.012207 0.012207 0.012207 0.012207 0.012207 0.012207 0.012207 0.012207 0.012207 0.012207 0.012207 0.012207 0.012207 0.012207 0.012207 0.012207 0.012207 0.012207 0.012207 0.012207 0.012207 0.012207 0.012207 0.012207 0.00610352 0.00610352 0.012207 0.012207 0.012207 0.012207 0.012207 0.012207 0.012207 0.012207 0.012207 0.012207 0.012207 0.012207 0.012207 0.012207 0.012207 0.012207 0.012207 0.012207 0.012207 0.012207 0.012207 0.012207 0.012207 0.012207 0.012207 0.012207 0.012207 0.012207 0.012207 0.012207 0.012207 0.012207 0.012207 0.012207 0.012207 0.012207 0.012207 0.012207 0.012207 0.012207 0.012207 0.012207 0.012207 0.012207 0.012207 0.012207 0.012207 0.00610352 0.00610352 0.012207 0.012207 0.012207 0.012207 0.012207 0.012207 0.012207 0.012207 0.012207 0.012207 0.012207 0.012207 0.012207 0.012207 0.012207 0.012207 0.012207 0.012207 0.012207 0.012207 0.012207 0.012207 0.012207 0.012207 0.012207 0.012207 0.012207 0.012207 0.012207 0.012207 0.012207 0.012207 0.012207 0.012207 0.012207 0.012207 0.012207 0.012207 0.012207 0.012207 0.012207 0.012207 0.012207 0.012207 0.012207 0.012207 0.012207 0.00610352 0.00610352 0.012207 0.012207 0.012207 0.012207 0.012207 0.012207 0.012207 0.012207 0.012207 0.012207 0.012207 0.012207 0.012207 0.012207 0.012207 0.012207 0.012207 0.012207 0.012207 0.012207 0.012207 0.012207 0.012207 0.012207 0.012207 0.012207 0.012207 0.012207 0.012207 0.012207 0.012207 0.012207 0.012207 0.012207 0.012207 0.012207 0.012207 0.012207 0.012207 0.012207 0.012207 0.012207 0.012207 0.012207 0.012207 0.012207 0.012207 0.00610352 0.00610351 0.012207 0.012207 0.012207 0.012207 0.012207 0.012207 0.012207 0.012207 0.012207 0.012207 0.012207 0.012207 0.012207 0.012207 0.012207 0.012207 0.012207 0.012207 0.012207 0.012207 0.012207 0.012207 0.012207 0.012207 0.012207 0.012207 0.012207 0.012207 0.012207 0.012207 0.012207 0.012207 0.012207 0.012207 0.012207 0.012207 0.012207 0.012207 0.012207 0.012207 0.012207 0.012207 0.012207 0.012207 0.012207 0.012207 0.012207 0.00610352 0.00610352 0.012207 0.012207 0.012207 0.012207 0.012207 0.012207 0.012207 0.012207 0.012207 0.012207 0.012207 0.012207 0.012207 0.012207 0.012207 0.012207 0.012207 0.012207 0.012207 0.012207 0.012207 0.012207 0.012207 0.012207 0.012207 0.012207 0.012207 0.012207 0.012207 0.012207 0.012207 0.012207 0.012207 0.012207 0.012207 0.012207 0.012207 0.012207 0.012207 0.012207 0.012207 0.012207 0.012207 0.012207 0.012207 0.012207 0.012207 0.00610352 0.00610352 0.012207 0.012207 0.012207 0.012207 0.012207 0.012207 0.012207 0.012207 0.012207 0.012207 0.012207 0.012207 0.012207 0.012207 0.012207 0.012207 0.012207 0.012207 0.012207 0.012207 0.012207 0.012207 0.012207 0.012207 0.012207 0.012207 0.012207 0.012207 0.012207 0.012207 0.012207 0.012207 0.012207 0.012207 0.012207 0.012207 0.012207 0.012207 0.012207 0.012207 0.012207 0.012207 0.012207 0.012207 0.012207 0.012207 0.012207 0.00610352 0.00610351 0.012207 0.012207 0.012207 0.012207 0.012207 0.012207 0.012207 0.012207 0.012207 0.012207 0.012207 0.012207 0.012207 0.012207 0.012207 0.012207 0.012207 0.012207 0.012207 0.012207 0.012207 0.012207 0.012207 0.012207 0.012207 0.012207 0.012207 0.012207 0.012207 0.012207 0.012207 0.012207 0.012207 0.012207 0.012207 0.012207 0.012207 0.012207 0.012207 0.012207 0.012207 0.012207 0.012207 0.012207 0.012207 0.012207 0.012207 0.00610352 0.00610351 0.012207 0.012207 0.012207 0.012207 0.012207 0.012207 0.012207 0.012207 0.012207 0.012207 0.012207 0.012207 0.012207 0.012207 0.012207 0.012207 0.012207 0.012207 0.012207 0.012207 0.012207 0.012207 0.012207 0.012207 0.012207 0.012207 0.012207 0.012207 0.012207 0.012207 0.012207 0.012207 0.012207 0.012207 0.012207 0.012207 0.012207 0.012207 0.012207 0.012207 0.012207 0.012207 0.012207 0.012207 0.012207 0.012207 0.012207 0.00610352 0.00610351 0.012207 0.012207 0.012207 0.012207 0.012207 0.012207 0.012207 0.012207 0.012207 0.012207 0.012207 0.012207 0.012207 0.012207 0.012207 0.012207 0.012207 0.012207 0.012207 0.012207 0.012207 0.012207 0.012207 0.012207 0.012207 0.012207 0.012207 0.012207 0.012207 0.012207 0.012207 0.012207 0.012207 0.012207 0.012207 0.012207 0.012207 0.012207 0.012207 0.012207 0.012207 0.012207 0.012207 0.012207 0.012207 0.012207 0.012207 0.00610352 0.00610351 0.012207 0.012207 0.012207 0.012207 0.012207 0.012207 0.012207 0.012207 0.012207 0.012207 0.012207 0.012207 0.012207 0.012207 0.012207 0.012207 0.012207 0.012207 0.012207 0.012207 0.012207 0.012207 0.012207 0.012207 0.012207 0.012207 0.012207 0.012207 0.012207 0.012207 0.012207 0.012207 0.012207 0.012207 0.012207 0.012207 0.012207 0.012207 0.012207 0.012207 0.012207 0.012207 0.012207 0.012207 0.012207 0.012207 0.012207 0.00610352 0.00610352 0.012207 0.012207 0.012207 0.012207 0.012207 0.012207 0.012207 0.012207 0.012207 0.012207 0.012207 0.012207 0.012207 0.012207 0.012207 0.012207 0.012207 0.012207 0.012207 0.012207 0.012207 0.012207 0.012207 0.012207 0.012207 0.012207 0.012207 0.012207 0.012207 0.012207 0.012207 0.012207 0.012207 0.012207 0.012207 0.012207 0.012207 0.012207 0.012207 0.012207 0.012207 0.012207 0.012207 0.012207 0.012207 0.012207 0.012207 0.00610352 0.00610352 0.012207 0.012207 0.012207 0.012207 0.012207 0.012207 0.012207 0.012207 0.012207 0.012207 0.012207 0.012207 0.012207 0.012207 0.012207 0.012207 0.012207 0.012207 0.012207 0.012207 0.012207 0.012207 0.012207 0.012207 0.012207 0.012207 0.012207 0.012207 0.012207 0.012207 0.012207 0.012207 0.012207 0.012207 0.012207 0.012207 0.012207 0.012207 0.012207 0.012207 0.012207 0.012207 0.012207 0.012207 0.012207 0.012207 0.012207 0.00610352 0.00610351 0.012207 0.012207 0.012207 0.012207 0.012207 0.012207 0.012207 0.012207 0.012207 0.012207 0.012207 0.012207 0.012207 0.012207 0.012207 0.012207 0.012207 0.012207 0.012207 0.012207 0.012207 0.012207 0.012207 0.012207 0.012207 0.012207 0.012207 0.012207 0.012207 0.012207 0.012207 0.012207 0.012207 0.012207 0.012207 0.012207 0.012207 0.012207 0.012207 0.012207 0.012207 0.012207 0.012207 0.012207 0.012207 0.012207 0.012207 0.00610352 0.00610351 0.012207 0.012207 0.012207 0.012207 0.012207 0.012207 0.012207 0.012207 0.012207 0.012207 0.012207 0.012207 0.012207 0.012207 0.012207 0.012207 0.012207 0.012207 0.012207 0.012207 0.012207 0.012207 0.012207 0.012207 0.012207 0.012207 0.012207 0.012207 0.012207 0.012207 0.012207 0.012207 0.012207 0.012207 0.012207 0.012207 0.012207 0.012207 0.012207 0.012207 0.012207 0.012207 0.012207 0.012207 0.012207 0.012207 0.012207 0.00610352 0.00305176 0.00610351 0.00610351 0.00610351 0.00610351 0.00610351 0.00610352 0.00610352 0.00610351 0.00610351 0.00610352 0.00610351 0.00610352 0.00610352 0.00610351 0.00610351 0.00610351 0.00610351 0.00610351 0.00610351 0.00610352 0.00610352 0.00610352 0.00610351 0.00610352 0.00610352 0.00610351 0.00610351 0.00610351 0.00610351 0.00610351 0.00610351 0.00610352 0.00610351 0.00610351 0.00610351 0.00610351 0.00610351 0.00610351 0.00610351 0.00610351 0.00610352 0.00610351 0.00610351 0.00610351 0.00610351 0.00610352 0.00610351 0.00305176 0.00610352 0.012207 0.012207 0.012207 0.012207 0.012207 0.012207 0.012207 0.012207 0.012207 0.012207 0.012207 0.012207 0.012207 0.012207 0.012207 0.012207 0.012207 0.012207 0.012207 0.012207 0.012207 0.012207 0.012207 0.012207 0.012207 0.012207 0.012207 0.012207 0.012207 0.012207 0.012207 0.012207 0.012207 0.012207 0.012207 0.012207 0.012207 0.012207 0.012207 0.012207 0.012207 0.012207 0.012207 0.012207 0.012207 0.012207 0.012207 0.00610352 0.012207 0.0244141 0.0244141 0.0244141 0.0244141 0.0244141 0.0244141 0.0244141 0.0244141 0.0244141 0.0244141 0.0244141 0.0244141 0.0244141 0.0244141 0.0244141 0.0244141 0.0244141 0.0244141 0.0244141 0.0244141 0.0244141 0.0244141 0.0244141 0.0244141 0.0244141 0.024414 0.0244141 0.0244141 0.024414 0.0244141 0.0244141 0.0244141 0.0244141 0.0244141 0.024414 0.0244141 0.0244141 0.024414 0.0244141 0.0244141 0.0244141 0.0244141 0.0244141 0.024414 0.0244141 0.0244141 0.0244141 0.012207 0.012207 0.0244141 0.0244141 0.0244141 0.0244141 0.0244141 0.0244141 0.0244141 0.0244141 0.0244141 0.0244141 0.0244141 0.0244141 0.0244141 0.0244141 0.0244141 0.0244141 0.0244141 0.0244141 0.0244141 0.0244141 0.0244141 0.0244141 0.0244141 0.0244141 0.0244141 0.024414 0.0244141 0.0244141 0.024414 0.0244141 0.0244141 0.0244141 0.0244141 0.0244141 0.024414 0.0244141 0.0244141 0.024414 0.0244141 0.0244141 0.0244141 0.0244141 0.0244141 0.024414 0.0244141 0.0244141 0.0244141 0.012207 0.012207 0.0244141 0.0244141 0.0244141 0.0244141 0.0244141 0.0244141 0.0244141 0.0244141 0.0244141 0.0244141 0.0244141 0.0244141 0.0244141 0.0244141 0.0244141 0.0244141 0.0244141 0.0244141 0.0244141 0.0244141 0.0244141 0.0244141 0.0244141 0.0244141 0.0244141 0.024414 0.0244141 0.0244141 0.024414 0.0244141 0.0244141 0.0244141 0.0244141 0.0244141 0.024414 0.0244141 0.0244141 0.024414 0.0244141 0.0244141 0.0244141 0.0244141 0.0244141 0.024414 0.0244141 0.0244141 0.0244141 0.012207 0.012207 0.0244141 0.0244141 0.0244141 0.0244141 0.0244141 0.0244141 0.0244141 0.0244141 0.0244141 0.0244141 0.0244141 0.0244141 0.0244141 0.0244141 0.0244141 0.0244141 0.0244141 0.0244141 0.0244141 0.0244141 0.0244141 0.0244141 0.0244141 0.0244141 0.0244141 0.024414 0.0244141 0.0244141 0.024414 0.0244141 0.0244141 0.0244141 0.0244141 0.0244141 0.024414 0.0244141 0.0244141 0.024414 0.0244141 0.0244141 0.0244141 0.0244141 0.0244141 0.024414 0.0244141 0.0244141 0.0244141 0.012207 0.012207 0.0244141 0.0244141 0.0244141 0.0244141 0.0244141 0.0244141 0.0244141 0.0244141 0.0244141 0.0244141 0.0244141 0.0244141 0.0244141 0.0244141 0.0244141 0.0244141 0.0244141 0.0244141 0.0244141 0.0244141 0.0244141 0.0244141 0.0244141 0.0244141 0.0244141 0.024414 0.0244141 0.0244141 0.024414 0.0244141 0.0244141 0.0244141 0.0244141 0.0244141 0.024414 0.0244141 0.0244141 0.024414 0.0244141 0.0244141 0.0244141 0.0244141 0.0244141 0.024414 0.0244141 0.0244141 0.0244141 0.012207 0.012207 0.0244141 0.0244141 0.0244141 0.0244141 0.0244141 0.0244141 0.0244141 0.0244141 0.0244141 0.0244141 0.0244141 0.0244141 0.0244141 0.0244141 0.0244141 0.0244141 0.0244141 0.0244141 0.0244141 0.0244141 0.0244141 0.0244141 0.0244141 0.0244141 0.0244141 0.024414 0.0244141 0.0244141 0.024414 0.0244141 0.0244141 0.0244141 0.0244141 0.0244141 0.024414 0.0244141 0.0244141 0.024414 0.0244141 0.0244141 0.0244141 0.0244141 0.0244141 0.024414 0.0244141 0.0244141 0.0244141 0.012207 0.012207 0.0244141 0.0244141 0.0244141 0.0244141 0.0244141 0.0244141 0.0244141 0.0244141 0.0244141 0.0244141 0.0244141 0.0244141 0.0244141 0.0244141 0.0244141 0.0244141 0.0244141 0.0244141 0.0244141 0.0244141 0.0244141 0.0244141 0.0244141 0.0244141 0.0244141 0.024414 0.0244141 0.0244141 0.024414 0.0244141 0.0244141 0.0244141 0.0244141 0.0244141 0.024414 0.0244141 0.0244141 0.024414 0.0244141 0.0244141 0.0244141 0.0244141 0.0244141 0.024414 0.0244141 0.0244141 0.0244141 0.012207 0.012207 0.0244141 0.0244141 0.0244141 0.0244141 0.0244141 0.0244141 0.0244141 0.0244141 0.0244141 0.0244141 0.0244141 0.0244141 0.0244141 0.0244141 0.0244141 0.0244141 0.024414 0.024414 0.0244141 0.0244141 0.0244141 0.0244141 0.0244141 0.0244141 0.0244141 0.024414 0.0244141 0.0244141 0.024414 0.0244141 0.0244141 0.0244141 0.024414 0.024414 0.024414 0.0244141 0.0244141 0.024414 0.0244141 0.0244141 0.0244141 0.0244141 0.0244141 0.024414 0.0244141 0.0244141 0.024414 0.012207 0.012207 0.0244141 0.0244141 0.0244141 0.0244141 0.0244141 0.0244141 0.0244141 0.024414 0.0244141 0.0244141 0.0244141 0.0244141 0.0244141 0.0244141 0.0244141 0.0244141 0.024414 0.024414 0.0244141 0.0244141 0.0244141 0.0244141 0.0244141 0.0244141 0.0244141 0.024414 0.0244141 0.0244141 0.024414 0.0244141 0.0244141 0.0244141 0.024414 0.024414 0.024414 0.0244141 0.0244141 0.024414 0.0244141 0.0244141 0.0244141 0.024414 0.0244141 0.024414 0.0244141 0.0244141 0.024414 0.012207 0.012207 0.0244141 0.0244141 0.0244141 0.0244141 0.0244141 0.0244141 0.0244141 0.0244141 0.0244141 0.0244141 0.0244141 0.0244141 0.0244141 0.0244141 0.0244141 0.0244141 0.0244141 0.0244141 0.0244141 0.0244141 0.0244141 0.0244141 0.0244141 0.0244141 0.0244141 0.024414 0.0244141 0.0244141 0.024414 0.0244141 0.0244141 0.0244141 0.0244141 0.0244141 0.024414 0.0244141 0.0244141 0.024414 0.0244141 0.0244141 0.0244141 0.0244141 0.0244141 0.024414 0.0244141 0.0244141 0.0244141 0.012207 0.012207 0.0244141 0.0244141 0.0244141 0.0244141 0.0244141 0.0244141 0.0244141 0.0244141 0.0244141 0.0244141 0.0244141 0.0244141 0.0244141 0.0244141 0.0244141 0.0244141 0.0244141 0.0244141 0.0244141 0.0244141 0.0244141 0.0244141 0.0244141 0.0244141 0.0244141 0.024414 0.0244141 0.0244141 0.024414 0.0244141 0.0244141 0.0244141 0.0244141 0.0244141 0.024414 0.0244141 0.0244141 0.024414 0.0244141 0.0244141 0.0244141 0.0244141 0.0244141 0.024414 0.0244141 0.0244141 0.0244141 0.012207 0.012207 0.0244141 0.0244141 0.0244141 0.0244141 0.0244141 0.0244141 0.0244141 0.0244141 0.0244141 0.0244141 0.0244141 0.0244141 0.0244141 0.0244141 0.0244141 0.0244141 0.0244141 0.0244141 0.0244141 0.0244141 0.0244141 0.0244141 0.0244141 0.0244141 0.0244141 0.024414 0.0244141 0.0244141 0.024414 0.0244141 0.0244141 0.0244141 0.0244141 0.0244141 0.024414 0.0244141 0.0244141 0.0244141 0.0244141 0.0244141 0.0244141 0.0244141 0.0244141 0.0244141 0.0244141 0.0244141 0.0244141 0.012207 0.012207 0.0244141 0.0244141 0.0244141 0.0244141 0.0244141 0.0244141 0.0244141 0.0244141 0.0244141 0.0244141 0.0244141 0.0244141 0.0244141 0.0244141 0.0244141 0.0244141 0.0244141 0.0244141 0.0244141 0.0244141 0.0244141 0.0244141 0.0244141 0.0244141 0.0244141 0.024414 0.0244141 0.0244141 0.024414 0.0244141 0.0244141 0.0244141 0.0244141 0.0244141 0.024414 0.0244141 0.0244141 0.024414 0.0244141 0.0244141 0.0244141 0.0244141 0.0244141 0.024414 0.0244141 0.0244141 0.0244141 0.012207 0.012207 0.0244141 0.0244141 0.0244141 0.024414 0.0244141 0.0244141 0.0244141 0.024414 0.024414 0.0244141 0.0244141 0.0244141 0.0244141 0.024414 0.024414 0.024414 0.024414 0.024414 0.0244141 0.0244141 0.0244141 0.0244141 0.024414 0.0244141 0.0244141 0.024414 0.0244141 0.0244141 0.024414 0.0244141 0.0244141 0.0244141 0.024414 0.024414 0.024414 0.0244141 0.0244141 0.024414 0.0244141 0.0244141 0.0244141 0.024414 0.024414 0.024414 0.0244141 0.0244141 0.024414 0.012207 0.012207 0.0244141 0.0244141 0.0244141 0.0244141 0.0244141 0.0244141 0.0244141 0.0244141 0.0244141 0.0244141 0.0244141 0.0244141 0.0244141 0.0244141 0.0244141 0.0244141 0.024414 0.024414 0.0244141 0.0244141 0.0244141 0.0244141 0.0244141 0.0244141 0.0244141 0.024414 0.0244141 0.0244141 0.024414 0.0244141 0.0244141 0.0244141 0.024414 0.0244141 0.024414 0.0244141 0.0244141 0.024414 0.0244141 0.0244141 0.0244141 0.0244141 0.0244141 0.024414 0.0244141 0.0244141 0.024414 0.012207 0.00610351 0.012207 0.012207 0.012207 0.012207 0.012207 0.012207 0.012207 0.012207 0.012207 0.012207 0.012207 0.012207 0.012207 0.012207 0.012207 0.012207 0.012207 0.012207 0.012207 0.012207 0.012207 0.012207 0.012207 0.012207 0.012207 0.012207 0.012207 0.012207 0.012207 0.012207 0.012207 0.012207 0.012207 0.012207 0.012207 0.012207 0.012207 0.012207 0.012207 0.012207 0.012207 0.012207 0.012207 0.012207 0.012207 0.012207 0.012207 0.00610352 0.00610352 0.012207 0.012207 0.012207 0.012207 0.012207 0.012207 0.012207 0.012207 0.012207 0.012207 0.012207 0.012207 0.012207 0.012207 0.012207 0.012207 0.012207 0.012207 0.012207 0.012207 0.012207 0.012207 0.012207 0.012207 0.012207 0.012207 0.012207 0.012207 0.012207 0.012207 0.012207 0.012207 0.012207 0.012207 0.012207 0.012207 0.012207 0.012207 0.012207 0.012207 0.012207 0.012207 0.012207 0.012207 0.012207 0.012207 0.012207 0.00610352 0.012207 0.0244141 0.0244141 0.0244141 0.0244141 0.0244141 0.0244141 0.0244141 0.0244141 0.0244141 0.0244141 0.0244141 0.0244141 0.0244141 0.0244141 0.0244141 0.0244141 0.0244141 0.0244141 0.0244141 0.0244141 0.0244141 0.0244141 0.0244141 0.0244141 0.0244141 0.024414 0.0244141 0.0244141 0.024414 0.0244141 0.0244141 0.0244141 0.0244141 0.0244141 0.024414 0.0244141 0.0244141 0.024414 0.0244141 0.0244141 0.0244141 0.0244141 0.0244141 0.024414 0.0244141 0.0244141 0.0244141 0.012207 0.012207 0.0244141 0.0244141 0.0244141 0.0244141 0.0244141 0.0244141 0.0244141 0.0244141 0.0244141 0.0244141 0.0244141 0.0244141 0.0244141 0.0244141 0.0244141 0.0244141 0.0244141 0.0244141 0.0244141 0.0244141 0.0244141 0.0244141 0.0244141 0.0244141 0.0244141 0.024414 0.0244141 0.0244141 0.024414 0.0244141 0.0244141 0.0244141 0.0244141 0.0244141 0.024414 0.0244141 0.0244141 0.024414 0.0244141 0.0244141 0.0244141 0.0244141 0.0244141 0.024414 0.0244141 0.0244141 0.0244141 0.012207 0.012207 0.0244141 0.0244141 0.0244141 0.0244141 0.0244141 0.0244141 0.0244141 0.0244141 0.0244141 0.0244141 0.0244141 0.0244141 0.0244141 0.0244141 0.0244141 0.0244141 0.0244141 0.0244141 0.0244141 0.0244141 0.0244141 0.0244141 0.0244141 0.0244141 0.0244141 0.024414 0.0244141 0.0244141 0.024414 0.0244141 0.0244141 0.0244141 0.0244141 0.0244141 0.024414 0.0244141 0.0244141 0.024414 0.0244141 0.0244141 0.0244141 0.0244141 0.0244141 0.024414 0.0244141 0.0244141 0.0244141 0.012207 0.012207 0.0244141 0.0244141 0.0244141 0.0244141 0.0244141 0.0244141 0.0244141 0.0244141 0.0244141 0.0244141 0.0244141 0.0244141 0.0244141 0.0244141 0.0244141 0.0244141 0.0244141 0.0244141 0.0244141 0.0244141 0.0244141 0.0244141 0.0244141 0.0244141 0.0244141 0.024414 0.0244141 0.0244141 0.024414 0.0244141 0.0244141 0.0244141 0.0244141 0.0244141 0.024414 0.0244141 0.0244141 0.024414 0.0244141 0.0244141 0.0244141 0.0244141 0.0244141 0.024414 0.0244141 0.0244141 0.0244141 0.012207 0.012207 0.0244141 0.0244141 0.0244141 0.0244141 0.0244141 0.0244141 0.0244141 0.0244141 0.0244141 0.0244141 0.0244141 0.0244141 0.0244141 0.0244141 0.0244141 0.0244141 0.0244141 0.0244141 0.0244141 0.0244141 0.0244141 0.0244141 0.0244141 0.0244141 0.0244141 0.024414 0.0244141 0.0244141 0.024414 0.0244141 0.0244141 0.0244141 0.0244141 0.0244141 0.024414 0.0244141 0.0244141 0.024414 0.0244141 0.0244141 0.0244141 0.0244141 0.0244141 0.024414 0.0244141 0.0244141 0.0244141 0.012207 0.012207 0.0244141 0.0244141 0.0244141 0.0244141 0.0244141 0.0244141 0.0244141 0.0244141 0.0244141 0.0244141 0.0244141 0.0244141 0.0244141 0.0244141 0.0244141 0.0244141 0.0244141 0.0244141 0.0244141 0.0244141 0.0244141 0.0244141 0.0244141 0.0244141 0.0244141 0.024414 0.0244141 0.0244141 0.024414 0.0244141 0.0244141 0.0244141 0.0244141 0.0244141 0.024414 0.0244141 0.0244141 0.024414 0.0244141 0.0244141 0.0244141 0.0244141 0.0244141 0.024414 0.0244141 0.0244141 0.0244141 0.012207 0.012207 0.0244141 0.0244141 0.0244141 0.0244141 0.0244141 0.0244141 0.0244141 0.0244141 0.0244141 0.0244141 0.0244141 0.0244141 0.0244141 0.0244141 0.0244141 0.0244141 0.0244141 0.0244141 0.0244141 0.0244141 0.0244141 0.0244141 0.0244141 0.0244141 0.0244141 0.024414 0.0244141 0.0244141 0.024414 0.0244141 0.0244141 0.0244141 0.0244141 0.0244141 0.024414 0.0244141 0.0244141 0.024414 0.0244141 0.0244141 0.0244141 0.0244141 0.0244141 0.024414 0.0244141 0.0244141 0.0244141 0.012207 0.012207 0.0244141 0.0244141 0.0244141 0.0244141 0.0244141 0.0244141 0.0244141 0.0244141 0.0244141 0.0244141 0.0244141 0.0244141 0.0244141 0.0244141 0.0244141 0.0244141 0.024414 0.024414 0.0244141 0.0244141 0.0244141 0.0244141 0.0244141 0.0244141 0.024