# vtk DataFile Version 5.1
vtk output
ASCII

DATASET UNSTRUCTURED_GRID
POINTS 30625 float
0 0 0
0.0416667 0 0
0.0833333 0 0
0.125 0 0
0.166667 0 0
0.208333 0 0
0.25 0 0
0.291667 0 0
0.333333 0 0
0.375 0 0
0.416667 0 0
0.458333 0 0
0.5 0 0
0.541667 0 0
0.583333 0 0
0.625 0 0
0.666667 0 0
0.708333 0 0
0.75 0 0
0.791667 0 0
0.833333 0 0
0.875 0 0
0.916667 0 0
0.958333 0 0
1 0 0
1.04167 0 0
1.08333 0 0
1.125 0 0
1.16667 0 0
1.20833 0 0
1.25 0 0
1.29167 0 0
1.33333 0 0
1.375 0 0
1.41667 0 0
1.45833 0 0
1.5 0 0
1.54167 0 0
1.58333 0 0
1.625 0 0
1.66667 0 0
1.70833 0 0
1.75 0 0
1.79167 0 0
1.83333 0 0
1.875 0 0
1.91667 0 0
1.95833 0 0
2 0 0
0 0.0416667 0
0.0416667 0.0416667 0
0.0833333 0.0416667 0
0.125 0.0416667 0
0.166667 0.0416667 0
0.208333 0.0416667 0
0.25 0.0416667 0
0.291667 0.0416667 0
0.333333 0.0416667 0
0.375 0.0416667 0
0.416667 0.0416667 0
0.458333 0.0416667 0
0.5 0.0416667 0
0.541667 0.0416667 0
0.583333 0.0416667 0
0.625 0.0416667 0
0.666667 0.0416667 0
0.708333 0.0416667 0
0.75 0.0416667 0
0.791667 0.0416667 0
0.833333 0.0416667 0
0.875 0.0416667 0
0.916667 0.0416667 0
0.958333 0.0416667 0
1 0.0416667 0
1.04167 0.0416667 0
1.08333 0.0416667 0
1.125 0.0416667 0
1.16667 0.0416667 0
1.20833 0.0416667 0
1.25 0.0416667 0
1.29167 0.0416667 0
1.33333 0.0416667 0
1.375 0.0416667 0
1.41667 0.0416667 0
1.45833 0.0416667 0
1.5 0.0416667 0
1.54167 0.0416667 0
1.58333 0.0416667 0
1.625 0.0416667 0
1.66667 0.0416667 0
1.70833 0.0416667 0
1.75 0.0416667 0
1.79167 0.0416667 0
1.83333 0.0416667 0
1.875 0.0416667 0
1.91667 0.0416667 0
1.95833 0.0416667 0
2 0.0416667 0
0 0.0833333 0
0.0416667 0.0833333 0
0.0833333 0.0833333 0
0.125 0.0833333 0
0.166667 0.0833333 0
0.208333 0.0833333 0
0.25 0.0833333 0
0.291667 0.0833333 0
0.333333 0.0833333 0
0.375 0.0833333 0
0.416667 0.0833333 0
0.458333 0.0833333 0
0.5 0.0833333 0
0.541667 0.0833333 0
0.583333 0.0833333 0
0.625 0.0833333 0
0.666667 0.0833333 0
0.708333 0.0833333 0
0.75 0.0833333 0
0.791667 0.0833333 0
0.833333 0.0833333 0
0.875 0.0833333 0
0.916667 0.0833333 0
0.958333 0.0833333 0
1 0.0833333 0
1.04167 0.0833333 0
1.08333 0.0833333 0
1.125 0.0833333 0
1.16667 0.0833333 0
1.20833 0.0833333 0
1.25 0.0833333 0
1.29167 0.0833333 0
1.33333 0.0833333 0
1.375 0.0833333 0
1.41667 0.0833333 0
1.45833 0.0833333 0
1.5 0.0833333 0
1.54167 0.0833333 0
1.58333 0.0833333 0
1.625 0.0833333 0
1.66667 0.0833333 0
1.70833 0.0833333 0
1.75 0.0833333 0
1.79167 0.0833333 0
1.83333 0.0833333 0
1.875 0.0833333 0
1.91667 0.0833333 0
1.95833 0.0833333 0
2 0.0833333 0
0 0.125 0
0.0416667 0.125 0
0.0833333 0.125 0
0.125 0.125 0
0.166667 0.125 0
0.208333 0.125 0
0.25 0.125 0
0.291667 0.125 0
0.333333 0.125 0
0.375 0.125 0
0.416667 0.125 0
0.458333 0.125 0
0.5 0.125 0
0.541667 0.125 0
0.583333 0.125 0
0.625 0.125 0
0.666667 0.125 0
0.708333 0.125 0
0.75 0.125 0
0.791667 0.125 0
0.833333 0.125 0
0.875 0.125 0
0.916667 0.125 0
0.958333 0.125 0
1 0.125 0
1.04167 0.125 0
1.08333 0.125 0
1.125 0.125 0
1.16667 0.125 0
1.20833 0.125 0
1.25 0.125 0
1.29167 0.125 0
1.33333 0.125 0
1.375 0.125 0
1.41667 0.125 0
1.45833 0.125 0
1.5 0.125 0
1.54167 0.125 0
1.58333 0.125 0
1.625 0.125 0
1.66667 0.125 0
1.70833 0.125 0
1.75 0.125 0
1.79167 0.125 0
1.83333 0.125 0
1.875 0.125 0
1.91667 0.125 0
1.95833 0.125 0
2 0.125 0
0 0.166667 0
0.0416667 0.166667 0
0.0833333 0.166667 0
0.125 0.166667 0
0.166667 0.166667 0
0.208333 0.166667 0
0.25 0.166667 0
0.291667 0.166667 0
0.333333 0.166667 0
0.375 0.166667 0
0.416667 0.166667 0
0.458333 0.166667 0
0.5 0.166667 0
0.541667 0.166667 0
0.583333 0.166667 0
0.625 0.166667 0
0.666667 0.166667 0
0.708333 0.166667 0
0.75 0.166667 0
0.791667 0.166667 0
0.833333 0.166667 0
0.875 0.166667 0
0.916667 0.166667 0
0.958333 0.166667 0
1 0.166667 0
1.04167 0.166667 0
1.08333 0.166667 0
1.125 0.166667 0
1.16667 0.166667 0
1.20833 0.166667 0
1.25 0.166667 0
1.29167 0.166667 0
1.33333 0.166667 0
1.375 0.166667 0
1.41667 0.166667 0
1.45833 0.166667 0
1.5 0.166667 0
1.54167 0.166667 0
1.58333 0.166667 0
1.625 0.166667 0
1.66667 0.166667 0
1.70833 0.166667 0
1.75 0.166667 0
1.79167 0.166667 0
1.83333 0.166667 0
1.875 0.166667 0
1.91667 0.166667 0
1.95833 0.166667 0
2 0.166667 0
0 0.208333 0
0.0416667 0.208333 0
0.0833333 0.208333 0
0.125 0.208333 0
0.166667 0.208333 0
0.208333 0.208333 0
0.25 0.208333 0
0.291667 0.208333 0
0.333333 0.208333 0
0.375 0.208333 0
0.416667 0.208333 0
0.458333 0.208333 0
0.5 0.208333 0
0.541667 0.208333 0
0.583333 0.208333 0
0.625 0.208333 0
0.666667 0.208333 0
0.708333 0.208333 0
0.75 0.208333 0
0.791667 0.208333 0
0.833333 0.208333 0
0.875 0.208333 0
0.916667 0.208333 0
0.958333 0.208333 0
1 0.208333 0
1.04167 0.208333 0
1.08333 0.208333 0
1.125 0.208333 0
1.16667 0.208333 0
1.20833 0.208333 0
1.25 0.208333 0
1.29167 0.208333 0
1.33333 0.208333 0
1.375 0.208333 0
1.41667 0.208333 0
1.45833 0.208333 0
1.5 0.208333 0
1.54167 0.208333 0
1.58333 0.208333 0
1.625 0.208333 0
1.66667 0.208333 0
1.70833 0.208333 0
1.75 0.208333 0
1.79167 0.208333 0
1.83333 0.208333 0
1.875 0.208333 0
1.91667 0.208333 0
1.95833 0.208333 0
2 0.208333 0
0 0.25 0
0.0416667 0.25 0
0.0833333 0.25 0
0.125 0.25 0
0.166667 0.25 0
0.208333 0.25 0
0.25 0.25 0
0.291667 0.25 0
0.333333 0.25 0
0.375 0.25 0
0.416667 0.25 0
0.458333 0.25 0
0.5 0.25 0
0.541667 0.25 0
0.583333 0.25 0
0.625 0.25 0
0.666667 0.25 0
0.708333 0.25 0
0.75 0.25 0
0.791667 0.25 0
0.833333 0.25 0
0.875 0.25 0
0.916667 0.25 0
0.958333 0.25 0
1 0.25 0
1.04167 0.25 0
1.08333 0.25 0
1.125 0.25 0
1.16667 0.25 0
1.20833 0.25 0
1.25 0.25 0
1.29167 0.25 0
1.33333 0.25 0
1.375 0.25 0
1.41667 0.25 0
1.45833 0.25 0
1.5 0.25 0
1.54167 0.25 0
1.58333 0.25 0
1.625 0.25 0
1.66667 0.25 0
1.70833 0.25 0
1.75 0.25 0
1.79167 0.25 0
1.83333 0.25 0
1.875 0.25 0
1.91667 0.25 0
1.95833 0.25 0
2 0.25 0
0 0.291667 0
0.0416667 0.291667 0
0.0833333 0.291667 0
0.125 0.291667 0
0.166667 0.291667 0
0.208333 0.291667 0
0.25 0.291667 0
0.291667 0.291667 0
0.333333 0.291667 0
0.375 0.291667 0
0.416667 0.291667 0
0.458333 0.291667 0
0.5 0.291667 0
0.541667 0.291667 0
0.583333 0.291667 0
0.625 0.291667 0
0.666667 0.291667 0
0.708333 0.291667 0
0.75 0.291667 0
0.791667 0.291667 0
0.833333 0.291667 0
0.875 0.291667 0
0.916667 0.291667 0
0.958333 0.291667 0
1 0.291667 0
1.04167 0.291667 0
1.08333 0.291667 0
1.125 0.291667 0
1.16667 0.291667 0
1.20833 0.291667 0
1.25 0.291667 0
1.29167 0.291667 0
1.33333 0.291667 0
1.375 0.291667 0
1.41667 0.291667 0
1.45833 0.291667 0
1.5 0.291667 0
1.54167 0.291667 0
1.58333 0.291667 0
1.625 0.291667 0
1.66667 0.291667 0
1.70833 0.291667 0
1.75 0.291667 0
1.79167 0.291667 0
1.83333 0.291667 0
1.875 0.291667 0
1.91667 0.291667 0
1.95833 0.291667 0
2 0.291667 0
0 0.333333 0
0.0416667 0.333333 0
0.0833333 0.333333 0
0.125 0.333333 0
0.166667 0.333333 0
0.208333 0.333333 0
0.25 0.333333 0
0.291667 0.333333 0
0.333333 0.333333 0
0.375 0.333333 0
0.416667 0.333333 0
0.458333 0.333333 0
0.5 0.333333 0
0.541667 0.333333 0
0.583333 0.333333 0
0.625 0.333333 0
0.666667 0.333333 0
0.708333 0.333333 0
0.75 0.333333 0
0.791667 0.333333 0
0.833333 0.333333 0
0.875 0.333333 0
0.916667 0.333333 0
0.958333 0.333333 0
1 0.333333 0
1.04167 0.333333 0
1.08333 0.333333 0
1.125 0.333333 0
1.16667 0.333333 0
1.20833 0.333333 0
1.25 0.333333 0
1.29167 0.333333 0
1.33333 0.333333 0
1.375 0.333333 0
1.41667 0.333333 0
1.45833 0.333333 0
1.5 0.333333 0
1.54167 0.333333 0
1.58333 0.333333 0
1.625 0.333333 0
1.66667 0.333333 0
1.70833 0.333333 0
1.75 0.333333 0
1.79167 0.333333 0
1.83333 0.333333 0
1.875 0.333333 0
1.91667 0.333333 0
1.95833 0.333333 0
2 0.333333 0
0 0.375 0
0.0416667 0.375 0
0.0833333 0.375 0
0.125 0.375 0
0.166667 0.375 0
0.208333 0.375 0
0.25 0.375 0
0.291667 0.375 0
0.333333 0.375 0
0.375 0.375 0
0.416667 0.375 0
0.458333 0.375 0
0.5 0.375 0
0.541667 0.375 0
0.583333 0.375 0
0.625 0.375 0
0.666667 0.375 0
0.708333 0.375 0
0.75 0.375 0
0.791667 0.375 0
0.833333 0.375 0
0.875 0.375 0
0.916667 0.375 0
0.958333 0.375 0
1 0.375 0
1.04167 0.375 0
1.08333 0.375 0
1.125 0.375 0
1.16667 0.375 0
1.20833 0.375 0
1.25 0.375 0
1.29167 0.375 0
1.33333 0.375 0
1.375 0.375 0
1.41667 0.375 0
1.45833 0.375 0
1.5 0.375 0
1.54167 0.375 0
1.58333 0.375 0
1.625 0.375 0
1.66667 0.375 0
1.70833 0.375 0
1.75 0.375 0
1.79167 0.375 0
1.83333 0.375 0
1.875 0.375 0
1.91667 0.375 0
1.95833 0.375 0
2 0.375 0
0 0.416667 0
0.0416667 0.416667 0
0.0833333 0.416667 0
0.125 0.416667 0
0.166667 0.416667 0
0.208333 0.416667 0
0.25 0.416667 0
0.291667 0.416667 0
0.333333 0.416667 0
0.375 0.416667 0
0.416667 0.416667 0
0.458333 0.416667 0
0.5 0.416667 0
0.541667 0.416667 0
0.583333 0.416667 0
0.625 0.416667 0
0.666667 0.416667 0
0.708333 0.416667 0
0.75 0.416667 0
0.791667 0.416667 0
0.833333 0.416667 0
0.875 0.416667 0
0.916667 0.416667 0
0.958333 0.416667 0
1 0.416667 0
1.04167 0.416667 0
1.08333 0.416667 0
1.125 0.416667 0
1.16667 0.416667 0
1.20833 0.416667 0
1.25 0.416667 0
1.29167 0.416667 0
1.33333 0.416667 0
1.375 0.416667 0
1.41667 0.416667 0
1.45833 0.416667 0
1.5 0.416667 0
1.54167 0.416667 0
1.58333 0.416667 0
1.625 0.416667 0
1.66667 0.416667 0
1.70833 0.416667 0
1.75 0.416667 0
1.79167 0.416667 0
1.83333 0.416667 0
1.875 0.416667 0
1.91667 0.416667 0
1.95833 0.416667 0
2 0.416667 0
0 0.458333 0
0.0416667 0.458333 0
0.0833333 0.458333 0
0.125 0.458333 0
0.166667 0.458333 0
0.208333 0.458333 0
0.25 0.458333 0
0.291667 0.458333 0
0.333333 0.458333 0
0.375 0.458333 0
0.416667 0.458333 0
0.458333 0.458333 0
0.5 0.458333 0
0.541667 0.458333 0
0.583333 0.458333 0
0.625 0.458333 0
0.666667 0.458333 0
0.708333 0.458333 0
0.75 0.458333 0
0.791667 0.458333 0
0.833333 0.458333 0
0.875 0.458333 0
0.916667 0.458333 0
0.958333 0.458333 0
1 0.458333 0
1.04167 0.458333 0
1.08333 0.458333 0
1.125 0.458333 0
1.16667 0.458333 0
1.20833 0.458333 0
1.25 0.458333 0
1.29167 0.458333 0
1.33333 0.458333 0
1.375 0.458333 0
1.41667 0.458333 0
1.45833 0.458333 0
1.5 0.458333 0
1.54167 0.458333 0
1.58333 0.458333 0
1.625 0.458333 0
1.66667 0.458333 0
1.70833 0.458333 0
1.75 0.458333 0
[...]
POINT_DATA 30625
SCALARS weights float 1
LOOKUP_TABLE default
0.000904225 0.00180845 0.00180845 0.00180845 0.00180845 0.00180845 0.00180845 0.00180845 0.00180845 0.00180845 0.00180845 0.00180845 0.00180845 0.00180845 0.00180845 0.00180845 0.00180845 0.00180845 0.00180845 0.00180845 0.00180845 0.00180845 0.00180845 0.00180845 0.00180845 0.00180845 0.00180845 0.00180845 0.00180845 0.00180845 0.00180845 0.00180845 0.00180845 0.00180845 0.00180845 0.00180845 0.00180845 0.00180845 0.00180845 0.00180845 0.00180845 0.00180845 0.00180845 0.00180845 0.00180845 0.00180845 0.00180845 0.00180845 0.000904225 0.00180845 0.0036169 0.0036169 0.0036169 0.0036169 0.0036169 0.0036169 0.0036169 0.0036169 0.0036169 0.0036169 0.0036169 0.0036169 0.0036169 0.0036169 0.0036169 0.0036169 0.0036169 0.0036169 0.0036169 0.0036169 0.0036169 0.0036169 0.0036169 0.0036169 0.0036169 0.00361689 0.0036169 0.0036169 0.0036169 0.0036169 0.0036169 0.0036169 0.0036169 0.0036169 0.0036169 0.0036169 0.0036169 0.0036169 0.0036169 0.0036169 0.0036169 0.0036169 0.0036169 0.00361689 0.0036169 0.0036169 0.00361689 0.00180845 0.00180845 0.0036169 0.0036169 0.0036169 0.0036169 0.0036169 0.0036169 0.0036169 0.0036169 0.0036169 0.0036169 0.0036169 0.0036169 0.0036169 0.0036169 0.0036169 0.0036169 0.0036169 0.0036169 0.0036169 0.0036169 0.0036169 0.0036169 0.0036169 0.0036169 0.0036169 0.00361689 0.0036169 0.0036169 0.0036169 0.0036169 0.0036169 0.0036169 0.0036169 0.0036169 0.00361689 0.0036169 0.0036169 0.0036169 0.0036169 0.0036169 0.0036169 0.0036169 0.0036169 0.00361689 0.0036169 0.0036169 0.00361689 0.00180845 0.00180845 0.0036169 0.0036169 0.0036169 0.0036169 0.0036169 0.0036169 0.0036169 0.0036169 0.0036169 0.0036169 0.0036169 0.0036169 0.0036169 0.0036169 0.0036169 0.0036169 0.0036169 0.0036169 0.0036169 0.0036169 0.0036169 0.0036169 0.0036169 0.0036169 0.0036169 0.00361689 0.0036169 0.0036169 0.0036169 0.0036169 0.0036169 0.0036169 0.0036169 0.0036169 0.0036169 0.0036169 0.0036169 0.0036169 0.0036169 0.0036169 0.0036169 0.0036169 0.0036169 0.00361689 0.0036169 0.0036169 0.00361689 0.00180845 0.00180845 0.0036169 0.0036169 0.0036169 0.0036169 0.0036169 0.0036169 0.0036169 0.0036169 0.0036169 0.0036169 0.0036169 0.0036169 0.0036169 0.0036169 0.0036169 0.0036169 0.0036169 0.0036169 0.0036169 0.0036169 0.0036169 0.0036169 0.0036169 0.0036169 0.0036169 0.00361689 0.0036169 0.0036169 0.0036169 0.0036169 0.0036169 0.0036169 0.0036169 0.0036169 0.0036169 0.0036169 0.0036169 0.0036169 0.0036169 0.0036169 0.0036169 0.0036169 0.0036169 0.00361689 0.0036169 0.0036169 0.00361689 0.00180845 0.00180845 0.0036169 0.0036169 0.0036169 0.0036169 0.0036169 0.0036169 0.0036169 0.0036169 0.0036169 0.0036169 0.0036169 0.0036169 0.0036169 0.0036169 0.0036169 0.0036169 0.0036169 0.0036169 0.0036169 0.0036169 0.0036169 0.0036169 0.0036169 0.0036169 0.0036169 0.00361689 0.0036169 0.0036169 0.00361689 0.0036169 0.0036169 0.0036169 0.0036169 0.0036169 0.00361689 0.0036169 0.0036169 0.0036169 0.0036169 0.0036169 0.0036169 0.0036169 0.0036169 0.00361689 0.0036169 0.0036169 0.00361689 0.00180845 0.00180845 0.0036169 0.0036169 0.0036169 0.0036169 0.0036169 0.0036169 0.0036169 0.0036169 0.0036169 0.0036169 0.0036169 0.0036169 0.0036169 0.0036169 0.0036169 0.0036169 0.0036169 0.0036169 0.0036169 0.0036169 0.0036169 0.0036169 0.0036169 0.0036169 0.0036169 0.00361689 0.0036169 0.0036169 0.00361689 0.0036169 0.0036169 0.0036169 0.0036169 0.0036169 0.00361689 0.0036169 0.0036169 0.0036169 0.0036169 0.0036169 0.0036169 0.0036169 0.0036169 0.00361689 0.0036169 0.0036169 0.00361689 0.00180845 0.00180845 0.0036169 0.0036169 0.0036169 0.0036169 0.0036169 0.0036169 0.0036169 0.0036169 0.0036169 0.0036169 0.0036169 0.0036169 0.0036169 0.0036169 0.0036169 0.0036169 0.0036169 0.0036169 0.0036169 0.0036169 0.0036169 0.0036169 0.0036169 0.0036169 0.0036169 0.00361689 0.0036169 0.0036169 0.0036169 0.0036169 0.0036169 0.0036169 0.0036169 0.0036169 0.0036169 0.0036169 0.0036169 0.0036169 0.0036169 0.0036169 0.0036169 0.0036169 0.0036169 0.00361689 0.0036169 0.0036169 0.00361689 0.00180845 0.00180845 0.0036169 0.0036169 0.0036169 0.0036169 0.0036169 0.0036169 0.0036169 0.0036169 0.0036169 0.0036169 0.0036169 0.0036169 0.0036169 0.0036169 0.0036169 0.0036169 0.0036169 0.0036169 0.0036169 0.0036169 0.0036169 0.0036169 0.0036169 0.0036169 0.0036169 0.00361689 0.0036169 0.0036169 0.00361689 0.0036169 0.0036169 0.00361689 0.0036169 0.0036169 0.00361689 0.0036169 0.0036169 0.0036169 0.0036169 0.00361689 0.00361689 0.0036169 0.00361689 0.00361689 0.0036169 0.0036169 0.00361689 0.00180845 0.00180845 0.0036169 0.0036169 0.0036169 0.0036169 0.0036169 0.0036169 0.0036169 0.0036169 0.0036169 0.0036169 0.0036169 0.0036169 0.0036169 0.0036169 0.0036169 0.0036169 0.0036169 0.0036169 0.0036169 0.0036169 0.0036169 0.0036169 0.0036169 0.0036169 0.0036169 0.00361689 0.0036169 0.0036169 0.00361689 0.0036169 0.0036169 0.0036169 0.0036169 0.0036169 0.00361689 0.0036169 0.0036169 0.0036169 0.0036169 0.0036169 0.0036169 0.0036169 0.0036169 0.00361689 0.0036169 0.0036169 0.00361689 0.00180845 0.00180845 0.0036169 0.0036169 0.0036169 0.0036169 0.0036169 0.0036169 0.0036169 0.0036169 0.0036169 0.0036169 0.0036169 0.0036169 0.0036169 0.0036169 0.0036169 0.0036169 0.0036169 0.0036169 0.0036169 0.0036169 0.0036169 0.0036169 0.0036169 0.0036169 0.0036169 0.00361689 0.0036169 0.0036169 0.0036169 0.0036169 0.0036169 0.0036169 0.0036169 0.0036169 0.00361689 0.0036169 0.0036169 0.0036169 0.0036169 0.0036169 0.0036169 0.0036169 0.0036169 0.00361689 0.0036169 0.0036169 0.00361689 0.00180845 0.00180845 0.0036169 0.0036169 0.0036169 0.0036169 0.0036169 0.0036169 0.0036169 0.0036169 0.0036169 0.0036169 0.0036169 0.0036169 0.0036169 0.0036169 0.0036169 0.0036169 0.0036169 0.0036169 0.0036169 0.0036169 0.0036169 0.0036169 0.0036169 0.0036169 0.0036169 0.00361689 0.0036169 0.0036169 0.00361689 0.0036169 0.0036169 0.00361689 0.0036169 0.0036169 0.00361689 0.0036169 0.0036169 0.0036169 0.0036169 0.0036169 0.00361689 0.0036169 0.0036169 0.00361689 0.0036169 0.0036169 0.00361689 0.00180845 0.00180845 0.0036169 0.0036169 0.0036169 0.0036169 0.0036169 0.0036169 0.0036169 0.0036169 0.0036169 0.0036169 0.0036169 0.0036169 0.0036169 0.0036169 0.0036169 0.0036169 0.0036169 0.0036169 0.0036169 0.0036169 0.0036169 0.0036169 0.0036169 0.0036169 0.0036169 0.00361689 0.0036169 0.0036169 0.0036169 0.0036169 0.0036169 0.0036169 0.0036169 0.0036169 0.0036169 0.0036169 0.0036169 0.0036169 0.0036169 0.0036169 0.0036169 0.0036169 0.0036169 0.00361689 0.0036169 0.0036169 0.00361689 0.00180845 0.00180845 0.0036169 0.0036169 0.0036169 0.0036169 0.0036169 0.0036169 0.0036169 0.0036169 0.0036169 0.0036169 0.0036169 0.0036169 0.0036169 0.0036169 0.0036169 0.0036169 0.0036169 0.0036169 0.0036169 0.0036169 0.0036169 0.0036169 0.0036169 0.0036169 0.0036169 0.0036169 0.0036169 0.0036169 0.0036169 0.0036169 0.0036169 0.0036169 0.0036169 0.0036169 0.0036169 0.0036169 0.0036169 0.0036169 0.0036169 0.0036169 0.0036169 0.0036169 0.0036169 0.00361689 0.0036169 0.0036169 0.00361689 0.00180845 0.00180845 0.0036169 0.0036169 0.0036169 0.0036169 0.0036169 0.0036169 0.0036169 0.0036169 0.0036169 0.0036169 0.0036169 0.0036169 0.0036169 0.0036169 0.0036169 0.0036169 0.0036169 0.0036169 0.0036169 0.0036169 0.0036169 0.0036169 0.0036169 0.0036169 0.0036169 0.00361689 0.0036169 0.0036169 0.00361689 0.0036169 0.0036169 0.00361689 0.0036169 0.0036169 0.00361689 0.0036169 0.0036169 0.0036169 0.0036169 0.00361689 0.00361689 0.0036169 0.00361689 0.00361689 0.0036169 0.0036169 0.00361689 0.00180845 0.00180845 0.0036169 0.0036169 0.0036169 0.0036169 0.0036169 0.0036169 0.0036169 0.0036169 0.0036169 0.0036169 0.0036169 0.0036169 0.0036169 0.0036169 0.0036169 0.0036169 0.0036169 0.0036169 0.0036169 0.0036169 0.0036169 0.0036169 0.0036169 0.0036169 0.0036169 0.00361689 0.0036169 0.0036169 0.00361689 0.0036169 0.0036169 0.00361689 0.0036169 0.0036169 0.00361689 0.0036169 0.0036169 0.0036169 0.0036169 0.0036169 0.00361689 0.0036169 0.0036169 0.00361689 0.0036169 0.0036169 0.00361689 0.00180845 0.00180845 0.0036169 0.0036169 0.0036169 0.0036169 0.0036169 0.0036169 0.0036169 0.0036169 0.0036169 0.0036169 0.0036169 0.0036169 0.0036169 0.0036169 0.0036169 0.0036169 0.0036169 0.0036169 0.0036169 0.0036169 0.0036169 0.0036169 0.0036169 0.0036169 0.0036169 0.0036169 0.0036169 0.0036169 0.0036169 0.0036169 0.0036169 0.0036169 0.0036169 0.0036169 0.0036169 0.0036169 0.0036169 0.0036169 0.0036169 0.0036169 0.0036169 0.0036169 0.0036169 0.00361689 0.0036169 0.0036169 0.0036169 0.00180845 0.00180845 0.0036169 0.0036169 0.0036169 0.0036169 0.0036169 0.0036169 0.0036169 0.0036169 0.0036169 0.0036169 0.0036169 0.0036169 0.0036169 0.0036169 0.0036169 0.0036169 0.0036169 0.0036169 0.0036169 0.0036169 0.0036169 0.0036169 0.0036169 0.0036169 0.0036169 0.00361689 0.0036169 0.0036169 0.00361689 0.0036169 0.0036169 0.00361689 0.0036169 0.0036169 0.00361689 0.0036169 0.0036169 0.0036169 0.0036169 0.0036169 0.00361689 0.0036169 0.00361689 0.00361689 0.0036169 0.0036169 0.00361689 0.00180845 0.00180845 0.0036169 0.0036169 0.0036169 0.0036169 0.0036169 0.0036169 0.0036169 0.00361689 0.0036169 0.0036169 0.00361689 0.0036169 0.0036169 0.00361689 0.0036169 0.0036169 0.00361689 0.00361689 0.0036169 0.0036169 0.00361689 0.0036169 0.0036169 0.0036169 0.0036169 0.00361689 0.0036169 0.0036169 0.00361689 0.0036169 0.0036169 0.00361689 0.0036169 0.0036169 0.00361689 0.0036169 0.0036169 0.00361689 0.0036169 0.00361689 0.00361689 0.0036169 0.00361689 0.00361689 0.0036169 0.00361689 0.00361689 0.00180845 0.00180845 0.0036169 0.0036169 0.0036169 0.0036169 0.0036169 0.0036169 0.0036169 0.0036169 0.0036169 0.0036169 0.0036169 0.0036169 0.0036169 0.0036169 0.0036169 0.0036169 0.0036169 0.0036169 0.0036169 0.0036169 0.0036169 0.0036169 0.0036169 0.0036169 0.0036169 0.0036169 0.0036169 0.0036169 0.0036169 0.0036169 0.0036169 0.0036169 0.0036169 0.0036169 0.0036169 0.0036169 0.0036169 0.0036169 0.0036169 0.0036169 0.0036169 0.0036169 0.0036169 0.00361689 0.0036169 0.0036169 0.00361689 0.00180845 0.00180845 0.0036169 0.0036169 0.0036169 0.0036169 0.0036169 0.0036169 0.0036169 0.0036169 0.0036169 0.0036169 0.0036169 0.0036169 0.0036169 0.0036169 0.0036169 0.0036169 0.0036169 0.0036169 0.0036169 0.0036169 0.0036169 0.0036169 0.0036169 0.0036169 0.0036169 0.00361689 0.0036169 0.0036169 0.00361689 0.0036169 0.0036169 0.0036169 0.0036169 0.0036169 0.00361689 0.0036169 0.0036169 0.0036169 0.0036169 0.0036169 0.0036169 0.0036169 0.0036169 0.00361689 0.0036169 0.0036169 0.00361689 0.00180845 0.00180845 0.0036169 0.0036169 0.0036169 0.0036169 0.0036169 0.0036169 0.0036169 0.0036169 0.0036169 0.0036169 0.0036169 0.0036169 0.0036169 0.0036169 0.0036169 0.0036169 0.00361689 0.00361689 0.0036169 0.0036169 0.00361689 0.0036169 0.0036169 0.0036169 0.0036169 0.00361689 0.0036169 0.0036169 0.00361689 0.0036169 0.0036169 0.00361689 0.0036169 0.0036169 0.00361689 0.0036169 0.0036169 0.00361689 0.0036169 0.00361689 0.00361689 0.0036169 0.00361689 0.00361689 0.0036169 0.0036169 0.00361689 0.00180845 0.00180845 0.0036169 0.0036169 0.0036169 0.0036169 0.0036169 0.0036169 0.0036169 0.0036169 0.0036169 0.0036169 0.0036169 0.0036169 0.0036169 0.0036169 0.0036169 0.0036169 0.0036169 0.0036169 0.0036169 0.0036169 0.0036169 0.0036169 0.0036169 0.0036169 0.0036169 0.0036169 0.0036169 0.0036169 0.0036169 0.0036169 0.0036169 0.0036169 0.0036169 0.0036169 0.0036169 0.0036169 0.0036169 0.0036169 0.0036169 0.0036169 0.0036169 0.0036169 0.0036169 0.00361689 0.0036169 0.0036169 0.00361689 0.00180845 0.00180845 0.0036169 0.0036169 0.0036169 0.0036169 0.0036169 0.0036169 0.0036169 0.0036169 0.0036169 0.0036169 0.0036169 0.0036169 0.0036169 0.0036169 0.0036169 0.0036169 0.0036169 0.0036169 0.0036169 0.0036169 0.0036169 0.0036169 0.0036169 0.0036169 0.0036169 0.00361689 0.0036169 0.0036169 0.00361689 0.0036169 0.0036169 0.00361689 0.0036169 0.0036169 0.00361689 0.0036169 0.0036169 0.0036169 0.0036169 0.0036169 0.0036169 0.0036169 0.0036169 0.00361689 0.0036169 0.0036169 0.00361689 0.00180845 0.000904224 0.00180845 0.00180845 0.00180845 0.00180845 0.00180845 0.00180845 0.00180845 0.00180845 0.00180845 0.00180845 0.00180845 0.00180845 0.00180845 0.00180845 0.00180845 0.00180845 0.00180845 0.00180845 0.00180845 0.00180845 0.00180845 0.00180845 0.00180845 0.00180845 0.00180845 0.00180845 0.00180845 0.00180845 0.00180845 0.00180845 0.00180845 0.00180845 0.00180845 0.00180845 0.00180845 0.00180845 0.00180845 0.00180845 0.00180845 0.00180845 0.00180845 0.00180845 0.00180845 0.00180844 0.00180845 0.00180845 0.00180844 0.000904224 0.00180845 0.0036169 0.0036169 0.0036169 0.0036169 0.0036169 0.0036169 0.0036169 0.0036169 0.0036169 0.0036169 0.0036169 0.0036169 0.0036169 0.0036169 0.0036169 0.0036169 0.0036169 0.0036169 0.0036169 0.0036169 0.0036169 0.0036169 0.0036169 0.0036169 0.0036169 0.00361689 0.0036169 0.0036169 0.0036169 0.0036169 0.0036169 0.0036169 0.0036169 0.0036169 0.0036169 0.0036169 0.0036169 0.0036169 0.0036169 0.0036169 0.0036169 0.0036169 0.0036169 0.00361689 0.0036169 0.0036169 0.00361689 0.00180845 0.0036169 0.0072338 0.0072338 0.0072338 0.0072338 0.0072338 0.0072338 0.0072338 0.0072338 0.0072338 0.0072338 0.00723379 0.0072338 0.0072338 0.0072338 0.0072338 0.0072338 0.00723379 0.00723379 0.0072338 0.0072338 0.00723379 0.0072338 0.0072338 0.0072338 0.0072338 0.00723379 0.0072338 0.0072338 0.00723379 0.0072338 0.0072338 0.00723379 0.0072338 0.0072338 0.00723379 0.0072338 0.0072338 0.00723379 0.0072338 0.00723379 0.00723379 0.00723381 0.00723379 0.00723378 0.00723381 0.00723379 0.00723379 0.0036169 0.0036169 0.0072338 0.0072338 0.0072338 0.0072338 0.0072338 0.0072338 0.0072338 0.0072338 0.0072338 0.0072338 0.00723379 0.0072338 0.0072338 0.00723379 0.0072338 0.0072338 0.00723379 0.00723379 0.0072338 0.0072338 0.00723379 0.0072338 0.0072338 0.0072338 0.0072338 0.00723379 0.0072338 0.0072338 0.00723379 0.0072338 0.0072338 0.00723379 0.0072338 0.0072338 0.00723379 0.0072338 0.0072338 0.00723379 0.0072338 0.00723379 0.00723379 0.0072338 0.00723379 0.00723378 0.00723381 0.00723379 0.00723379 0.0036169 0.0036169 0.0072338 0.0072338 0.0072338 0.0072338 0.0072338 0.0072338 0.0072338 0.0072338 0.0072338 0.0072338 0.00723379 0.0072338 0.0072338 0.0072338 0.0072338 0.0072338 0.00723379 0.00723379 0.0072338 0.0072338 0.00723379 0.0072338 0.0072338 0.0072338 0.0072338 0.00723379 0.0072338 0.0072338 0.00723379 0.0072338 0.0072338 0.00723379 0.0072338 0.0072338 0.00723379 0.0072338 0.0072338 0.00723379 0.0072338 0.00723379 0.00723379 0.0072338 0.00723379 0.00723378 0.00723381 0.00723379 0.00723379 0.0036169 0.0036169 0.0072338 0.0072338 0.0072338 0.0072338 0.0072338 0.0072338 0.0072338 0.0072338 0.0072338 0.0072338 0.0072338 0.0072338 0.0072338 0.0072338 0.0072338 0.0072338 0.00723379 0.00723379 0.0072338 0.0072338 0.00723379 0.0072338 0.0072338 0.0072338 0.0072338 0.00723379 0.0072338 0.0072338 0.00723379 0.0072338 0.0072338 0.00723379 0.0072338 0.0072338 0.00723379 0.0072338 0.0072338 0.00723379 0.0072338 0.00723379 0.00723379 0.00723381 0.00723379 0.00723378 0.00723381 0.00723379 0.00723379 0.0036169 0.0036169 0.0072338 0.0072338 0.0072338 0.0072338 0.0072338 0.0072338 0.0072338 0.00723379 0.0072338 0.0072338 0.00723379 0.0072338 0.0072338 0.00723379 0.0072338 0.0072338 0.00723379 0.00723379 0.0072338 0.0072338 0.00723379 0.0072338 0.0072338 0.0072338 0.0072338 0.00723379 0.0072338 0.0072338 0.00723379 0.0072338 0.0072338 0.00723379 0.0072338 0.0072338 0.00723379 0.0072338 0.0072338 0.00723379 0.0072338 0.00723379 0.00723379 0.0072338 0.00723379 0.00723378 0.0072338 0.00723379 0.00723378 0.0036169 0.0036169 0.0072338 0.0072338 0.0072338 0.0072338 0.0072338 0.0072338 0.0072338 0.0072338 0.0072338 0.0072338 0.0072338 0.0072338 0.0072338 0.00723379 0.0072338 0.0072338 0.00723379 0.00723379 0.0072338 0.0072338 0.00723379 0.0072338 0.0072338 0.0072338 0.0072338 0.00723379 0.0072338 0.0072338 0.00723379 0.0072338 0.0072338 0.00723379 0.0072338 0.0072338 0.00723379 0.0072338 0.0072338 0.00723379 0.0072338 0.00723379 0.00723379 0.0072338 0.00723379 0.00723378 0.00723381 0.00723379 0.00723379 0.0036169 0.0036169 0.0072338 0.0072338 0.0072338 0.0072338 0.0072338 0.0072338 0.0072338 0.0072338 0.0072338 0.0072338 0.0072338 0.0072338 0.0072338 0.0072338 0.0072338 0.0072338 0.00723379 0.00723379 0.0072338 0.0072338 0.00723379 0.0072338 0.0072338 0.0072338 0.0072338 0.00723379 0.0072338 0.0072338 0.00723379 0.0072338 0.0072338 0.00723379 0.0072338 0.0072338 0.00723379 0.0072338 0.0072338 0.00723379 0.00723381 0.00723379 0.00723379 0.00723381 0.00723379 0.00723378 0.00723381 0.00723379 0.00723379 0.0036169 0.0036169 0.0072338 0.00723379 0.0072338 0.0072338 0.00723379 0.00723379 0.0072338 0.00723379 0.0072338 0.0072338 0.00723379 0.0072338 0.0072338 0.00723379 0.0072338 0.0072338 0.00723379 0.00723379 0.0072338 0.0072338 0.00723379 0.0072338 0.00723379 0.0072338 0.0072338 0.00723379 0.0072338 0.0072338 0.00723379 0.0072338 0.0072338 0.00723379 0.0072338 0.0072338 0.00723379 0.0072338 0.0072338 0.00723379 0.0072338 0.00723379 0.00723379 0.0072338 0.00723379 0.00723378 0.0072338 0.00723379 0.00723378 0.0036169 0.0036169 0.0072338 0.0072338 0.0072338 0.0072338 0.0072338 0.0072338 0.0072338 0.0072338 0.0072338 0.0072338 0.00723379 0.0072338 0.0072338 0.00723379 0.0072338 0.0072338 0.00723379 0.00723379 0.0072338 0.0072338 0.00723379 0.0072338 0.0072338 0.0072338 0.0072338 0.00723379 0.0072338 0.0072338 0.00723379 0.0072338 0.0072338 0.00723379 0.0072338 0.0072338 0.00723379 0.0072338 0.0072338 0.00723379 0.0072338 0.00723379 0.00723379 0.0072338 0.00723379 0.00723378 0.0072338 0.00723379 0.00723379 0.0036169 0.0036169 0.0072338 0.0072338 0.0072338 0.0072338 0.0072338 0.0072338 0.0072338 0.0072338 0.0072338 0.0072338 0.00723379 0.0072338 0.0072338 0.0072338 0.0072338 0.0072338 0.00723379 0.00723379 0.0072338 0.0072338 0.00723379 0.0072338 0.0072338 0.0072338 0.0072338 0.00723379 0.0072338 0.0072338 0.00723379 0.0072338 0.0072338 0.00723379 0.0072338 0.0072338 0.00723379 0.0072338 0.0072338 0.00723379 0.0072338 0.00723379 0.00723379 0.00723381 0.00723379 0.00723378 0.00723381 0.00723379 0.00723379 0.0036169 0.0036169 0.0072338 0.0072338 0.0072338 0.0072338 0.00723379 0.0072338 0.0072338 0.00723379 0.0072338 0.0072338 0.00723379 0.0072338 0.0072338 0.00723379 0.0072338 0.0072338 0.00723379 0.00723379 0.0072338 0.0072338 0.00723379 0.0072338 0.0072338 0.0072338 0.0072338 0.00723379 0.0072338 0.0072338 0.00723379 0.0072338 0.0072338 0.00723379 0.0072338 0.0072338 0.00723379 0.0072338 0.0072338 0.00723379 0.0072338 0.00723379 0.00723379 0.0072338 0.00723379 0.00723378 0.0072338 0.00723379 0.00723378 0.0036169 0.0036169 0.0072338 0.0072338 0.0072338 0.0072338 0.0072338 0.0072338 0.0072338 0.0072338 0.0072338 0.0072338 0.0072338 0.0072338 0.0072338 0.0072338 0.0072338 0.0072338 0.00723379 0.00723379 0.0072338 0.0072338 0.00723379 0.0072338 0.0072338 0.0072338 0.0072338 0.00723379 0.0072338 0.0072338 0.00723379 0.0072338 0.0072338 0.00723379 0.0072338 0.0072338 0.00723379 0.0072338 0.0072338 0.00723379 0.0072338 0.00723379 0.00723379 0.00723381 0.00723379 0.00723378 0.00723381 0.0072338 0.00723379 0.0036169 0.0036169 0.0072338 0.0072338 0.0072338 0.0072338 0.0072338 0.0072338 0.0072338 0.0072338 0.0072338 0.0072338 0.0072338 0.0072338 0.0072338 0.0072338 0.0072338 0.0072338 0.00723379 0.00723379 0.0072338 0.0072338 0.00723379 0.0072338 0.0072338 0.0072338 0.0072338 0.00723379 0.0072338 0.0072338 0.00723379 0.00723381 0.00723381 0.00723379 0.0072338 0.0072338 0.00723379 0.0072338 0.0072338 0.00723379 0.00723381 0.00723379 0.00723379 0.00723381 0.00723379 0.00723379 0.00723381 0.0072338 0.00723379 0.0036169 0.0036169 0.00723379 0.00723379 0.00723379 0.0072338 0.00723379 0.0072338 0.0072338 0.00723379 0.00723379 0.0072338 0.00723379 0.0072338 0.0072338 0.00723379 0.00723379 0.0072338 0.00723379 0.00723379 0.0072338 0.0072338 0.00723379 0.0072338 0.00723379 0.0072338 0.0072338 0.00723379 0.0072338 0.0072338 0.00723379 0.0072338 0.0