# vtk DataFile Version 5.1
vtk output
ASCII

DATASET UNSTRUCTURED_GRID
POINTS 2673 float
0 0 0
0.25 0 0
0.5 0 0
0.75 0 0
1 0 0
1.25 0 0
1.5 0 0
1.75 0 0
2 0 0
2.25 0 0
2.5 0 0
2.75 0 0
3 0 0
3.25 0 0
3.5 0 0
3.75 0 0
4 0 0
0 0.25 0
0.25 0.25 0
0.5 0.25 0
0.75 0.25 0
1 0.25 0
1.25 0.25 0
1.5 0.25 0
1.75 0.25 0
2 0.25 0
2.25 0.25 0
2.5 0.25 0
2.75 0.25 0
3 0.25 0
3.25 0.25 0
3.5 0.25 0
3.75 0.25 0
4 0.25 0
0 0.5 0
0.25 0.5 0
0.5 0.5 0
0.75 0.5 0
1 0.5 0
1.25 0.5 0
1.5 0.5 0
1.75 0.5 0
2 0.5 0
2.25 0.5 0
2.5 0.5 0
2.75 0.5 0
3 0.5 0
3.25 0.5 0
3.5 0.5 0
3.75 0.5 0
4 0.5 0
0 0.75 0
0.25 0.75 0
0.5 0.75 0
0.75 0.75 0
1 0.75 0
1.25 0.75 0
1.5 0.75 0
1.75 0.75 0
2 0.75 0
2.25 0.75 0
2.5 0.75 0
2.75 0.75 0
3 0.75 0
3.25 0.75 0
3.5 0.75 0
3.75 0.75 0
4 0.75 0
0 1 0
0.25 1 0
0.5 1 0
0.75 1 0
1 1 0
1.25 1 0
1.5 1 0
1.75 1 0
2 1 0
2.25 1 0
2.5 1 0
2.75 1 0
3 1 0
3.25 1 0
3.5 1 0
3.75 1 0
4 1 0
0 0 0.25
0.25 0 0.25
0.5 0 0.25
0.75 0 0.25
1 0 0.25
1.25 0 0.25
1.5 0 0.25
1.75 0 0.25
2 0 0.25
2.25 0 0.25
2.5 0 0.25
2.75 0 0.25
3 0 0.25
3.25 0 0.25
3.5 0 0.25
3.75 0 0.25
4 0 0.25
0 0.25 0.25
0.25 0.25 0.25
0.5 0.25 0.25
0.75 0.25 0.25
1 0.25 0.25
1.25 0.25 0.25
1.5 0.25 0.25
1.75 0.25 0.25
2 0.25 0.25
2.25 0.25 0.25
2.5 0.25 0.25
2.75 0.25 0.25
3 0.25 0.25
3.25 0.25 0.25
3.5 0.25 0.25
3.75 0.25 0.25
4 0.25 0.25
0 0.5 0.25
0.25 0.5 0.25
0.5 0.5 0.25
0.75 0.5 0.25
1 0.5 0.25
1.25 0.5 0.25
1.5 0.5 0.25
1.75 0.5 0.25
2 0.5 0.25
2.25 0.5 0.25
2.5 0.5 0.25
2.75 0.5 0.25
3 0.5 0.25
3.25 0.5 0.25
3.5 0.5 0.25
3.75 0.5 0.25
4 0.5 0.25
0 0.75 0.25
0.25 0.75 0.25
0.5 0.75 0.25
0.75 0.75 0.25
1 0.75 0.25
1.25 0.75 0.25
1.5 0.75 0.25
1.75 0.75 0.25
2 0.75 0.25
2.25 0.75 0.25
2.5 0.75 0.25
2.75 0.75 0.25
3 0.75 0.25
3.25 0.75 0.25
3.5 0.75 0.25
3.75 0.75 0.25
4 0.75 0.25
0 1 0.25
0.25 1 0.25
0.5 1 0.25
0.75 1 0.25
1 1 0.25
1.25 1 0.25
1.5 1 0.25
1.75 1 0.25
2 1 0.25
2.25 1 0.25
2.5 1 0.25
2.75 1 0.25
3 1 0.25
3.25 1 0.25
3.5 1 0.25
3.75 1 0.25
4 1 0.25
0 0 0.5
0.25 0 0.5
0.5 0 0.5
0.75 0 0.5
1 0 0.5
1.25 0 0.5
1.5 0 0.5
1.75 0 0.5
2 0 0.5
2.25 0 0.5
2.5 0 0.5
2.75 0 0.5
3 0 0.5
3.25 0 0.5
3.5 0 0.5
3.75 0 0.5
4 0 0.5
0 0.25 0.5
0.25 0.25 0.5
0.5 0.25 0.5
0.75 0.25 0.5
1 0.25 0.5
1.25 0.25 0.5
1.5 0.25 0.5
1.75 0.25 0.5
2 0.25 0.5
2.25 0.25 0.5
2.5 0.25 0.5
2.75 0.25 0.5
3 0.25 0.5
3.25 0.25 0.5
3.5 0.25 0.5
3.75 0.25 0.5
4 0.25 0.5
0 0.5 0.5
0.25 0.5 0.5
0.5 0.5 0.5
0.75 0.5 0.5
1 0.5 0.5
1.25 0.5 0.5
1.5 0.5 0.5
1.75 0.5 0.5
2 0.5 0.5
2.25 0.5 0.5
2.5 0.5 0.5
2.75 0.5 0.5
3 0.5 0.5
3.25 0.5 0.5
3.5 0.5 0.5
3.75 0.5 0.5
4 0.5 0.5
0 0.75 0.5
0.25 0.75 0.5
0.5 0.75 0.5
0.75 0.75 0.5
1 0.75 0.5
1.25 0.75 0.5
1.5 0.75 0.5
1.75 0.75 0.5
2 0.75 0.5
2.25 0.75 0.5
2.5 0.75 0.5
2.75 0.75 0.5
3 0.75 0.5
3.25 0.75 0.5
3.5 0.75 0.5
3.75 0.75 0.5
4 0.75 0.5
0 1 0.5
0.25 1 0.5
0.5 1 0.5
0.75 1 0.5
1 1 0.5
1.25 1 0.5
1.5 1 0.5
1.75 1 0.5
2 1 0.5
2.25 1 0.5
2.5 1 0.5
2.75 1 0.5
3 1 0.5
3.25 1 0.5
3.5 1 0.5
3.75 1 0.5
4 1 0.5
0 0 0.75
0.25 0 0.75
0.5 0 0.75
0.75 0 0.75
1 0 0.75
1.25 0 0.75
1.5 0 0.75
1.75 0 0.75
2 0 0.75
2.25 0 0.75
2.5 0 0.75
2.75 0 0.75
3 0 0.75
3.25 0 0.75
3.5 0 0.75
3.75 0 0.75
4 0 0.75
0 0.25 0.75
0.25 0.25 0.75
0.5 0.25 0.75
0.75 0.25 0.75
1 0.25 0.75
1.25 0.25 0.75
1.5 0.25 0.75
1.75 0.25 0.75
2 0.25 0.75
2.25 0.25 0.75
2.5 0.25 0.75
2.75 0.25 0.75
3 0.25 0.75
3.25 0.25 0.75
3.5 0.25 0.75
3.75 0.25 0.75
4 0.25 0.75
0 0.5 0.75
0.25 0.5 0.75
0.5 0.5 0.75
0.75 0.5 0.75
1 0.5 0.75
1.25 0.5 0.75
1.5 0.5 0.75
1.75 0.5 0.75
2 0.5 0.75
2.25 0.5 0.75
2.5 0.5 0.75
2.75 0.5 0.75
3 0.5 0.75
3.25 0.5 0.75
3.5 0.5 0.75
3.75 0.5 0.75
4 0.5 0.75
0 0.75 0.75
0.25 0.75 0.75
0.5 0.75 0.75
0.75 0.75 0.75
1 0.75 0.75
1.25 0.75 0.75
1.5 0.75 0.75
1.75 0.75 0.75
2 0.75 0.75
2.25 0.75 0.75
2.5 0.75 0.75
2.75 0.75 0.75
3 0.75 0.75
3.25 0.75 0.75
3.5 0.75 0.75
3.75 0.75 0.75
4 0.75 0.75
0 1 0.75
0.25 1 0.75
0.5 1 0.75
0.75 1 0.75
1 1 0.75
1.25 1 0.75
1.5 1 0.75
1.75 1 0.75
2 1 0.75
2.25 1 0.75
2.5 1 0.75
2.75 1 0.75
3 1 0.75
3.25 1 0.75
3.5 1 0.75
3.75 1 0.75
4 1 0.75
0 0 1
0.25 0 1
0.5 0 1
0.75 0 1
1 0 1
1.25 0 1
1.5 0 1
1.75 0 1
2 0 1
2.25 0 1
2.5 0 1
2.75 0 1
3 0 1
3.25 0 1
3.5 0 1
3.75 0 1
4 0 1
0 0.25 1
0.25 0.25 1
0.5 0.25 1
0.75 0.25 1
1 0.25 1
1.25 0.25 1
1.5 0.25 1
1.75 0.25 1
2 0.25 1
2.25 0.25 1
2.5 0.25 1
2.75 0.25 1
3 0.25 1
3.25 0.25 1
3.5 0.25 1
3.75 0.25 1
4 0.25 1
0 0.5 1
0.25 0.5 1
0.5 0.5 1
0.75 0.5 1
1 0.5 1
1.25 0.5 1
1.5 0.5 1
1.75 0.5 1
2 0.5 1
2.25 0.5 1
2.5 0.5 1
2.75 0.5 1
3 0.5 1
3.25 0.5 1
3.5 0.5 1
3.75 0.5 1
4 0.5 1
0 0.75 1
0.25 0.75 1
0.5 0.75 1
0.75 0.75 1
1 0.75 1
1.25 0.75 1
1.5 0.75 1
1.75 0.75 1
2 0.75 1
2.25 0.75 1
2.5 0.75 1
2.75 0.75 1
3 0.75 1
3.25 0.75 1
3.5 0.75 1
3.75 0.75 1
4 0.75 1
0 1 1
0.25 1 1
0.5 1 1
0.75 1 1
1 1 1
1.25 1 1
1.5 1 1
1.75 1 1
2 1 1
2.25 1 1
2.5 1 1
2.75 1 1
3 1 1
3.25 1 1
3.5 1 1
3.75 1 1
4 1 1
0 0.125 0
0.125 0.25 0.125
0.125 0.125 0.125
0.125 0.125 0
0.125 0.25 0
0.25 0.25 0.125
0.125 0.125 0.25
0.25 0.125 0.25
0.125 0 0.25
0 0 0.125
0.125 0 0.125
0 0.25 0.125
0 0.125 0.125
0.125 0.25 0.25
0 0.125 0.25
0.25 0 0.125
0.125 0 0
0.25 0.125 0.125
0.25 0.125 0
0.375 0.25 0.125
0.375 0.125 0.125
0.375 0.125 0
0.375 0.25 0
0.5 0.25 0.125
0.375 0.125 0.25
0.5 0.125 0.25
0.375 0 0.25
0.375 0 0.125
0.375 0.25 0.25
0.5 0 0.125
0.375 0 0
0.5 0.125 0.125
0.5 0.125 0
0.625 0.25 0.125
0.625 0.125 0.125
0.625 0.125 0
0.625 0.25 0
0.75 0.25 0.125
0.625 0.125 0.25
0.75 0.125 0.25
0.625 0 0.25
0.625 0 0.125
0.625 0.25 0.25
0.75 0 0.125
0.625 0 0
0.75 0.125 0.125
0.75 0.125 0
0.875 0.25 0.125
0.875 0.125 0.125
0.875 0.125 0
0.875 0.25 0
1 0.25 0.125
0.875 0.125 0.25
1 0.125 0.25
0.875 0 0.25
0.875 0 0.125
0.875 0.25 0.25
1 0 0.125
0.875 0 0
1 0.125 0.125
1 0.125 0
1.125 0.25 0.125
1.125 0.125 0.125
1.125 0.125 0
1.125 0.25 0
1.25 0.25 0.125
1.125 0.125 0.25
1.25 0.125 0.25
1.125 0 0.25
1.125 0 0.125
1.125 0.25 0.25
1.25 0 0.125
1.125 0 0
1.25 0.125 0.125
1.25 0.125 0
1.375 0.25 0.125
1.375 0.125 0.125
1.375 0.125 0
1.375 0.25 0
1.5 0.25 0.125
1.375 0.125 0.25
1.5 0.125 0.25
1.375 0 0.25
1.375 0 0.125
1.375 0.25 0.25
1.5 0 0.125
1.375 0 0
1.5 0.125 0.125
1.5 0.125 0
1.625 0.25 0.125
1.625 0.125 0.125
1.625 0.125 0
1.625 0.25 0
1.75 0.25 0.125
1.625 0.125 0.25
1.75 0.125 0.25
1.625 0 0.25
1.625 0 0.125
1.625 0.25 0.25
1.75 0 0.125
1.625 0 0
1.75 0.125 0.125
1.75 0.125 0
1.875 0.25 0.125
1.875 0.125 0.125
1.875 0.125 0
1.875 0.25 0
2 0.25 0.125
1.875 0.125 0.25
2 0.125 0.25
1.875 0 0.25
1.875 0 0.125
1.875 0.25 0.25
2 0 0.125
1.875 0 0
2 0.125 0.125
2 0.125 0
2.125 0.25 0.125
2.125 0.125 0.125
2.125 0.125 0
2.125 0.25 0
2.25 0.25 0.125
2.125 0.125 0.25
2.25 0.125 0.25
2.125 0 0.25
2.125 0 0.125
2.125 0.25 0.25
2.25 0 0.125
2.125 0 0
2.25 0.125 0.125
2.25 0.125 0
2.375 0.25 0.125
2.375 0.125 0.125
2.375 0.125 0
2.375 0.25 0
2.5 0.25 0.125
2.375 0.125 0.25
2.5 0.125 0.25
2.375 0 0.25
2.375 0 0.125
2.375 0.25 0.25
2.5 0 0.125
2.375 0 0
2.5 0.125 0.125
2.5 0.125 0
2.625 0.25 0.125
2.625 0.125 0.125
2.625 0.125 0
2.625 0.25 0
2.75 0.25 0.125
2.625 0.125 0.25
2.75 0.125 0.25
2.625 0 0.25
2.625 0 0.125
2.625 0.25 0.25
2.75 0 0.125
2.625 0 0
2.75 0.125 0.125
2.75 0.125 0
2.875 0.25 0.125
2.875 0.125 0.125
2.875 0.125 0
2.875 0.25 0
3 0.25 0.125
2.875 0.125 0.25
3 0.125 0.25
2.875 0 0.25
2.875 0 0.125
2.875 0.25 0.25
3 0 0.125
2.875 0 0
3 0.125 0.125
3 0.125 0
3.125 0.25 0.125
3.125 0.125 0.125
3.125 0.125 0
3.125 0.25 0
3.25 0.25 0.125
3.125 0.125 0.25
3.25 0.125 0.25
3.125 0 0.25
3.125 0 0.125
3.125 0.25 0.25
3.25 0 0.125
3.125 0 0
3.25 0.125 0.125
3.25 0.125 0
3.375 0.25 0.125
3.375 0.125 0.125
3.375 0.125 0
3.375 0.25 0
3.5 0.25 0.125
3.375 0.125 0.25
3.5 0.125 0.25
3.375 0 0.25
3.375 0 0.125
3.375 0.25 0.25
3.5 0 0.125
3.375 0 0
3.5 0.125 0.125
3.5 0.125 0
3.625 0.25 0.125
3.625 0.125 0.125
3.625 0.125 0
3.625 0.25 0
3.75 0.25 0.125
3.625 0.125 0.25
3.75 0.125 0.25
3.625 0 0.25
3.625 0 0.125
3.625 0.25 0.25
3.75 0 0.125
3.625 0 0
3.75 0.125 0.125
3.75 0.125 0
3.875 0.25 0.125
3.875 0.125 0.125
3.875 0.125 0
3.875 0.25 0
4 0.25 0.125
3.875 0.125 0.25
4 0.125 0.25
3.875 0 0.25
3.875 0 0.125
3.875 0.25 0.25
4 0 0.125
3.875 0 0
4 0.125 0.125
4 0.125 0
0 0.375 0
0.125 0.5 0.125
0.125 0.375 0.125
0.125 0.375 0
0.125 0.5 0
0.25 0.5 0.125
0.125 0.375 0.25
0.25 0.375 0.25
0 0.5 0.125
0 0.375 0.125
0.125 0.5 0.25
0 0.375 0.25
0.25 0.375 0.125
0.25 0.375 0
0.375 0.5 0.125
0.375 0.375 0.125
0.375 0.375 0
0.375 0.5 0
0.5 0.5 0.125
0.375 0.375 0.25
0.5 0.375 0.25
0.375 0.5 0.25
0.5 0.375 0.125
0.5 0.375 0
0.625 0.5 0.125
0.625 0.375 0.125
0.625 0.375 0
0.625 0.5 0
0.75 0.5 0.125
0.625 0.375 0.25
0.75 0.375 0.25
0.625 0.5 0.25
0.75 0.375 0.125
0.75 0.375 0
0.875 0.5 0.125
0.875 0.375 0.125
0.875 0.375 0
0.875 0.5 0
1 0.5 0.125
0.875 0.375 0.25
1 0.375 0.25
0.875 0.5 0.25
1 0.375 0.125
1 0.375 0
1.125 0.5 0.125
1.125 0.375 0.125
1.125 0.375 0
1.125 0.5 0
1.25 0.5 0.125
1.125 0.375 0.25
1.25 0.375 0.25
1.125 0.5 0.25
1.25 0.375 0.125
1.25 0.375 0
1.375 0.5 0.125
1.375 0.375 0.125
1.375 0.375 0
1.375 0.5 0
1.5 0.5 0.125
1.375 0.375 0.25
1.5 0.375 0.25
1.375 0.5 0.25
1.5 0.375 0.125
1.5 0.375 0
1.625 0.5 0.125
1.625 0.375 0.125
1.625 0.375 0
1.625 0.5 0
1.75 0.5 0.125
1.625 0.375 0.25
1.75 0.375 0.25
1.625 0.5 0.25
1.75 0.375 0.125
1.75 0.375 0
1.875 0.5 0.125
1.875 0.375 0.125
1.875 0.375 0
1.875 0.5 0
2 0.5 0.125
1.875 0.375 0.25
2 0.375 0.25
1.875 0.5 0.25
2 0.375 0.125
2 0.375 0
2.125 0.5 0.125
2.125 0.375 0.125
2.125 0.375 0
2.125 0.5 0
2.25 0.5 0.125
2.125 0.375 0.25
2.25 0.375 0.25
2.125 0.5 0.25
2.25 0.375 0.125
2.25 0.375 0
2.375 0.5 0.125
2.375 0.375 0.125
2.375 0.375 0
2.375 0.5 0
2.5 0.5 0.125
2.375 0.375 0.25
2.5 0.375 0.25
2.375 0.5 0.25
2.5 0.375 0.125
2.5 0.375 0
2.625 0.5 0.125
2.625 0.375 0.125
2.625 0.375 0
2.625 0.5 0
2.75 0.5 0.125
2.625 0.375 0.25
2.75 0.375 0.25
2.625 0.5 0.25
2.75 0.375 0.125
2.75 0.375 0
2.875 0.5 0.125
2.875 0.375 0.125
2.875 0.375 0
2.875 0.5 0
3 0.5 0.125
2.875 0.375 0.25
3 0.375 0.25
2.875 0.5 0.25
3 0.375 0.125
3 0.375 0
3.125 0.5 0.125
3.125 0.375 0.125
3.125 0.375 0
3.125 0.5 0
[...]
POINT_DATA 2673
SCALARS weights float 1
LOOKUP_TABLE default
1.5625 2.08333 2.08333 2.08333 2.08333 2.08333 2.08333 2.08334 2.08334 2.08334 2.08333 2.08333 2.08334 2.08333 2.08334 2.08334 0.520835 2.08333 3.125 3.125 3.125 3.125 3.125 3.125 3.125 3.125 3.125 3.125 3.125 3.125 3.125 3.125 3.125 1.04167 2.08333 3.125 3.125 3.125 3.125 3.125 3.125 3.125 3.125 3.125 3.125 3.125 3.125 3.125 3.125 3.125 1.04167 2.08333 3.125 3.125 3.125 3.125 3.125 3.125 3.125 3.125 3.125 3.125 3.125 3.125 3.125 3.125 3.125 1.04167 0.520833 1.04167 1.04167 1.04167 1.04167 1.04167 1.04167 1.04167 1.04167 1.04167 1.04167 1.04167 1.04167 1.04167 1.04167 1.04167 0.520835 2.08333 3.125 3.125 3.125 3.125 3.125 3.125 3.125 3.125 3.125 3.125 3.125 3.125 3.125 3.125 3.125 1.04167 3.125 6.25 6.25 6.25 6.25 6.25 6.25 6.25 6.25 6.25 6.25 6.25 6.25 6.25 6.25 6.25 3.125 3.125 6.25 6.25 6.25 6.25 6.25 6.25 6.25 6.25 6.25 6.25 6.25 6.25 6.25 6.25 6.25 3.125 3.125 6.25 6.25 6.25 6.25 6.25 6.25 6.25 6.25 6.25 6.25 6.25 6.25 6.25 6.25 6.25 3.125 1.04167 3.125 3.125 3.125 3.125 3.125 3.125 3.125 3.125 3.125 3.125 3.125 3.125 3.125 3.125 3.125 2.08334 2.08333 3.125 3.125 3.125 3.125 3.125 3.125 3.125 3.125 3.125 3.125 3.125 3.125 3.125 3.125 3.125 1.04167 3.125 6.25 6.25 6.25 6.25 6.25 6.25 6.25 6.25 6.25 6.25 6.25 6.25 6.25 6.25 6.25 3.125 3.125 6.25 6.25 6.25 6.25 6.25 6.25 6.25 6.25 6.25 6.25 6.25 6.25 6.25 6.25 6.25 3.125 3.125 6.25 6.25 6.25 6.25 6.25 6.25 6.25 6.25 6.25 6.25 6.25 6.25 6.25 6.25 6.25 3.125 1.04167 3.125 3.125 3.125 3.125 3.125 3.125 3.125 3.125 3.125 3.125 3.125 3.125 3.125 3.125 3.125 2.08334 2.08333 3.125 3.125 3.125 3.125 3.125 3.125 3.125 3.125 3.125 3.125 3.125 3.125 3.125 3.125 3.125 1.04167 3.125 6.25 6.25 6.25 6.25 6.25 6.25 6.25 6.25 6.25 6.25 6.25 6.25 6.25 6.25 6.25 3.125 3.125 6.25 6.25 6.25 6.25 6.25 6.25 6.25 6.25 6.25 6.25 6.25 6.25 6.25 6.25 6.25 3.125 3.125 6.25 6.25 6.25 6.25 6.25 6.25 6.25 6.25 6.25 6.25 6.25 6.25 6.25 6.25 6.25 3.125 1.04167 3.125 3.125 3.125 3.125 3.125 3.125 3.125 3.125 3.125 3.125 3.125 3.125 3.125 3.125 3.125 2.08334 0.520833 1.04167 1.04167 1.04167 1.04167 1.04167 1.04167 1.04167 1.04167 1.04167 1.04167 1.04167 1.04167 1.04167 1.04167 1.04167 0.520834 1.04167 3.125 3.125 3.125 3.125 3.125 3.125 3.125 3.125 3.125 3.125 3.125 3.125 3.125 3.125 3.125 2.08334 1.04167 3.125 3.125 3.125 3.125 3.125 3.125 3.125 3.125 3.125 3.125 3.125 3.125 3.125 3.125 3.125 2.08334 1.04167 3.125 3.125 3.125 3.125 3.125 3.125 3.125 3.125 3.125 3.125 3.125 3.125 3.125 3.125 3.125 2.08333 0.520833 2.08333 2.08333 2.08333 2.08333 2.08333 2.08333 2.08333 2.08333 2.08333 2.08333 2.08333 2.08333 2.08333 2.08333 2.08333 1.5625 0.520833 1.04167 1.5625 0.520833 0.78125 1.5625 1.04167 1.5625 0.78125 0.520833 0.520833 0.78125 0.520833 1.5625 0.78125 0.78125 0.520833 1.04167 0.78125 1.04167 1.5625 0.520833 0.78125 1.5625 1.04167 1.5625 0.78125 0.520833 1.5625 0.78125 0.520833 1.04167 0.78125 1.04167 1.5625 0.520833 0.78125 1.5625 1.04167 1.5625 0.78125 0.520833 1.5625 0.78125 0.520833 1.04167 0.78125 1.04167 1.5625 0.520834 0.78125 1.5625 1.04167 1.5625 0.78125 0.520833 1.5625 0.78125 0.520834 1.04167 0.78125 1.04167 1.5625 0.520834 0.78125 1.5625 1.04167 1.5625 0.78125 0.520833 1.5625 0.78125 0.520834 1.04167 0.78125 1.04167 1.5625 0.520834 0.78125 1.5625 1.04167 1.5625 0.78125 0.520833 1.5625 0.78125 0.520834 1.04167 0.781251 1.04167 1.5625 0.520834 0.781251 1.5625 1.04167 1.5625 0.78125 0.520833 1.5625 0.78125 0.520834 1.04167 0.781251 1.04167 1.5625 0.520834 0.781251 1.5625 1.04167 1.5625 0.781251 0.520834 1.5625 0.78125 0.520834 1.04167 0.781251 1.04167 1.5625 0.520834 0.781251 1.5625 1.04167 1.5625 0.781251 0.520834 1.5625 0.78125 0.520834 1.04167 0.781251 1.04167 1.5625 0.520834 0.781251 1.5625 1.04167 1.5625 0.781251 0.520834 1.5625 0.78125 0.520834 1.04167 0.78125 1.04167 1.5625 0.520834 0.78125 1.5625 1.04167 1.5625 0.78125 0.520833 1.5625 0.781249 0.520833 1.04167 0.781251 1.04167 1.5625 0.520834 0.781251 1.5625 1.04167 1.5625 0.781251 0.520834 1.5625 0.78125 0.520834 1.04167 0.781251 1.04167 1.5625 0.520834 0.781251 1.5625 1.04167 1.5625 0.781251 0.520834 1.5625 0.78125 0.520834 1.04167 0.781251 1.04167 1.5625 0.520834 0.781251 1.5625 1.04167 1.5625 0.781251 0.520834 1.5625 0.78125 0.520834 1.04167 0.781251 1.04167 1.5625 0.520834 0.781251 1.5625 1.04167 1.5625 0.781251 0.520834 1.5625 0.78125 0.520834 1.04167 0.781251 1.04167 1.5625 0.520835 0.781252 0.781252 1.04167 0.781251 0.781251 0.520834 1.5625 0.260417 0.520835 0.520835 0.260417 0.520833 1.04167 1.5625 0.520833 0.78125 1.5625 1.04167 1.5625 0.78125 0.520833 1.5625 0.78125 1.04167 0.78125 1.04167 1.5625 0.520833 0.78125 1.5625 1.04167 1.5625 1.5625 1.04167 0.78125 1.04167 1.5625 0.520833 0.78125 1.5625 1.04167 1.5625 1.5625 1.04167 0.78125 1.04167 1.5625 0.520834 0.78125 1.5625 1.04167 1.5625 1.5625 1.04167 0.781251 1.04167 1.5625 0.520834 0.78125 1.5625 1.04167 1.5625 1.5625 1.04167 0.78125 1.04167 1.5625 0.520834 0.78125 1.5625 1.04167 1.5625 1.5625 1.04167 0.781251 1.04167 1.5625 0.520834 0.781251 1.5625 1.04167 1.5625 1.5625 1.04167 0.781251 1.04167 1.5625 0.520834 0.781251 1.5625 1.04167 1.5625 1.5625 1.04167 0.781251 1.04167 1.5625 0.520834 0.781251 1.5625 1.04167 1.5625 1.5625 1.04167 0.781251 1.04167 1.5625 0.520834 0.781251 1.5625 1.04167 1.5625 1.5625 1.04167 0.78125 1.04167 1.5625 0.520834 0.78125 1.5625 1.04167 1.5625 1.5625 1.04167 0.781251 1.04167 1.5625 0.520834 0.781251 1.5625 1.04167 1.5625 1.5625 1.04167 0.781251 1.04167 1.5625 0.520834 0.781251 1.5625 1.04167 1.5625 1.5625 1.04167 0.781251 1.04167 1.5625 0.520834 0.781251 1.5625 1.04167 1.5625 1.5625 1.04167 0.781251 1.04167 1.5625 0.520834 0.781251 1.5625 1.04167 1.5625 1.5625 1.04167 0.781251 1.04167 1.5625 0.520835 0.781252 0.781252 1.04167 0.781251 1.5625 0.520835 0.260417 0.520833 1.04167 1.5625 0.520833 0.78125 1.5625 1.04167 1.5625 0.78125 0.520833 1.5625 0.78125 1.04167 0.78125 1.04167 1.5625 0.520833 0.78125 1.5625 1.04167 1.5625 1.5625 1.04167 0.78125 1.04167 1.5625 0.520833 0.78125 1.5625 1.04167 1.5625 1.5625 1.04167 0.78125 1.04167 1.5625 0.520833 0.78125 1.5625 1.04167 1.5625 1.5625 1.04167 0.78125 1.04167 1.5625 0.520833 0.78125 1.5625 1.04167 1.5625 1.5625 1.04167 0.78125 1.04167 1.5625 0.520833 0.78125 1.5625 1.04167 1.5625 1.5625 1.04167 0.78125 1.04167 1.5625 0.520834 0.781251 1.5625 1.04167 1.5625 1.5625 1.04167 0.781251 1.04167 1.5625 0.520834 0.781251 1.5625 1.04167 1.5625 1.5625 1.04167 0.781251 1.04167 1.5625 0.520834 0.781251 1.5625 1.04167 1.5625 1.5625 1.04167 0.781251 1.04167 1.5625 0.520834 0.781251 1.5625 1.04167 1.5625 1.5625 1.04167 0.78125 1.04167 1.5625 0.520833 0.78125 1.5625 1.04167 1.5625 1.5625 1.04167 0.781251 1.04167 1.5625 0.520834 0.781251 1.5625 1.04167 1.5625 1.5625 1.04167 0.781251 1.04167 1.5625 0.520834 0.781251 1.5625 1.04167 1.5625 1.5625 1.04167 0.781251 1.04167 1.5625 0.520834 0.781251 1.5625 1.04167 1.5625 1.5625 1.04167 0.781251 1.04167 1.5625 0.520834 0.781251 1.5625 1.04167 1.5625 1.5625 1.04167 0.781251 1.04167 1.5625 0.520834 0.781252 0.781252 1.04167 0.781251 1.5625 0.520835 0.260417 0.520833 0.520833 1.5625 0.520833 0.260417 0.78125 1.04167 1.5625 0.260417 0.520833 0.78125 0.78125 1.04167 0.78125 0.520833 1.5625 0.520833 0.260417 0.78125 1.04167 1.5625 0.78125 1.04167 0.78125 0.520833 1.5625 0.520833 0.260417 0.78125 1.04167 1.5625 0.78125 1.04167 0.78125 0.520833 1.5625 0.520833 0.260417 0.78125 1.04167 1.5625 0.78125 1.04167 0.78125 0.520834 1.5625 0.520834 0.260417 0.78125 1.04167 1.5625 0.78125 1.04167 0.78125 0.520833 1.5625 0.520834 0.260417 0.78125 1.04167 1.5625 0.78125 1.04167 0.78125 0.520834 1.5625 0.520834 0.260417 0.781251 1.04167 1.5625 0.78125 1.04167 0.781251 0.520834 1.5625 0.520834 0.260417 0.781251 1.04167 1.5625 0.781251 1.04167 0.781251 0.520834 1.5625 0.520834 0.260417 0.781251 1.04167 1.5625 0.78125 1.04167 0.781251 0.520834 1.5625 0.520834 0.260417 0.781251 1.04167 1.5625 0.781251 1.04167 0.78125 0.520833 1.5625 0.520833 0.260417 0.781251 1.04167 1.5625 0.78125 1.04167 0.781251 0.520834 1.5625 0.520834 0.260417 0.781251 1.04167 1.5625 0.78125 1.04167 0.781251 0.520834 1.5625 0.520834 0.260417 0.781251 1.04167 1.5625 0.78125 1.04167 0.781251 0.520834 1.5625 0.520834 0.260417 0.781251 1.04167 1.5625 0.78125 1.04167 0.781251 0.520834 1.5625 0.520834 0.260417 0.781251 1.04167 1.5625 0.78125 1.04167 0.781251 0.520834 1.5625 0.520835 0.260417 0.520835 1.04167 0.781251 0.78125 0.520835 0.260417 1.04167 1.5625 1.5625 1.04167 1.5625 0.78125 0.520833 0.520833 0.78125 0.520833 1.5625 0.78125 0.78125 1.04167 1.04167 1.5625 1.5625 1.04167 1.5625 0.78125 0.520833 1.5625 0.78125 1.04167 1.04167 1.5625 1.5625 1.04167 1.5625 0.78125 0.520833 1.5625 0.78125 1.04167 1.04167 1.5625 1.5625 1.04167 1.5625 0.78125 0.520833 1.5625 0.78125 1.04167 1.04167 1.5625 1.5625 1.04167 1.5625 0.78125 0.520833 1.5625 0.78125 1.04167 1.04167 1.5625 1.5625 1.04167 1.5625 0.78125 0.520833 1.5625 0.78125 1.04167 1.04167 1.5625 1.5625 1.04167 1.5625 0.78125 0.520834 1.5625 0.78125 1.04167 1.04167 1.5625 1.5625 1.04167 1.5625 0.781251 0.520834 1.5625 0.78125 1.04167 1.04167 1.5625 1.5625 1.04167 1.5625 0.781251 0.520834 1.5625 0.78125 1.04167 1.04167 1.5625 1.5625 1.04167 1.5625 0.78125 0.520834 1.5625 0.78125 1.04167 1.04167 1.5625 1.5625 1.04167 1.5625 0.78125 0.520834 1.5625 0.781249 1.04167 1.04167 1.5625 1.5625 1.04167 1.5625 0.781251 0.520834 1.5625 0.78125 1.04167 1.04167 1.5625 1.5625 1.04167 1.5625 0.781251 0.520834 1.5625 0.78125 1.04167 1.04167 1.5625 1.5625 1.04167 1.5625 0.781251 0.520834 1.5625 0.78125 1.04167 1.04167 1.5625 1.5625 1.04167 1.5625 0.781251 0.520834 1.5625 0.78125 1.04167 1.04167 1.5625 0.781252 1.04167 0.781251 0.781251 0.520834 1.5625 0.260417 0.520835 1.04167 1.5625 1.5625 1.04167 1.5625 0.78125 0.520833 1.5625 0.78125 1.04167 1.04167 1.5625 1.5625 1.04167 1.5625 1.5625 1.04167 1.04167 1.5625 1.5625 1.04167 1.5625 1.5625 1.04167 1.04167 1.5625 1.5625 1.04167 1.5625 1.5625 1.04167 1.04167 1.5625 1.5625 1.04167 1.5625 1.5625 1.04167 1.04167 1.5625 1.5625 1.04167 1.5625 1.5625 1.04167 1.04167 1.5625 1.5625 1.04167 1.5625 1.5625 1.04167 1.04167 1.5625 1.5625 1.04167 1.5625 1.5625 1.04167 1.04167 1.5625 1.5625 1.04167 1.5625 1.5625 1.04167 1.04167 1.5625 1.5625 1.04167 1.5625 1.5625 1.04167 1.04167 1.5625 1.5625 1.04167 1.5625 1.5625 1.04167 1.04167 1.5625 1.5625 1.04167 1.5625 1.5625 1.04167 1.04167 1.5625 1.5625 1.04167 1.5625 1.5625 1.04167 1.04167 1.5625 1.5625 1.04167 1.5625 1.5625 1.04167 1.04167 1.5625 1.5625 1.04167 1.5625 1.5625 1.04167 1.04167 1.5625 0.781252 1.04167 0.781251 1.5625 0.520835 1.04167 1.5625 1.5625 1.04167 1.5625 0.78125 0.520833 1.5625 0.78125 1.04167 1.04167 1.5625 1.5625 1.04167 1.5625 1.5625 1.04167 1.04167 1.5625 1.5625 1.04167 1.5625 1.5625 1.04167 1.04167 1.5625 1.5625 1.04167 1.5625 1.5625 1.04167 1.04167 1.5625 1.5625 1.04167 1.5625 1.5625 1.04167 1.04167 1.5625 1.5625 1.04167 1.5625 1.5625 1.04167 1.04167 1.5625 1.5625 1.04167 1.5625 1.5625 1.04167 1.04167 1.5625 1.5625 1.04167 1.5625 1.5625 1.04167 1.04167 1.5625 1.5625 1.04167 1.5625 1.5625 1.04167 1.04167 1.5625 1.5625 1.04167 1.5625 1.5625 1.04167 1.04167 1.5625 1.5625 1.04167 1.5625 1.5625 1.04167 1.04167 1.5625 1.5625 1.04167 1.5625 1.5625 1.04167 1.04167 1.5625 1.5625 1.04167 1.5625 1.5625 1.04167 1.04167 1.5625 1.5625 1.04167 1.5625 1.5625 1.04167 1.04167 1.5625 1.5625 1.04167 1.5625 1.5625 1.04167 1.04167 1.5625 0.781252 1.04167 0.781251 1.5625 0.520835 0.520833 1.5625 0.78125 1.04167 1.5625 0.260417 0.520833 0.78125 0.78125 1.04167 0.520833 1.5625 0.78125 1.04167 1.5625 0.78125 1.04167 0.520833 1.5625 0.78125 1.04167 1.5625 0.78125 1.04167 0.520833 1.5625 0.78125 1.04167 1.5625 0.78125 1.04167 0.520834 1.5625 0.78125 1.04167 1.5625 0.78125 1.04167 0.520833 1.5625 0.78125 1.04167 1.5625 0.78125 1.04167 0.520834 1.5625 0.781251 1.04167 1.5625 0.78125 1.04167 0.520834 1.5625 0.781251 1.04167 1.5625 0.781251 1.04167 0.520834 1.5625 0.781251 1.04167 1.5625 0.78125 1.04167 0.520834 1.5625 0.781251 1.04167 1.5625 0.781251 1.04167 0.520833 1.5625 0.781251 1.04167 1.5625 0.78125 1.04167 0.520834 1.5625 0.781251 1.04167 1.5625 0.78125 1.04167 0.520834 1.5625 0.781251 1.04167 1.5625 0.78125 1.04167 0.520834 1.5625 0.781251 1.04167 1.5625 0.78125 1.04167 0.520834 1.5625 0.781251 1.04167 1.5625 0.78125 1.04167 0.520834 1.5625 0.520834 1.04167 0.781251 0.78125 0.520835 1.04167 1.5625 1.5625 1.04167 1.5625 0.78125 0.520833 0.520833 0.78125 0.520833 1.5625 0.78125 0.78125 1.04167 1.04167 1.5625 1.5625 1.04167 1.5625 0.78125 0.520833 1.5625 0.78125 1.04167 1.04167 1.5625 1.5625 1.04167 1.5625 0.78125 0.520833 1.5625 0.78125 1.04167 1.04167 1.5625 1.5625 1.04167 1.5625 0.78125 0.520833 1.5625 0.78125 1.04167 1.04167 1.5625 1.5625 1.04167 1.5625 0.78125 0.520833 1.5625 0.78125 1.04167 1.04167 1.5625 1.5625 1.04167 1.5625 0.78125 0.520833 1.5625 0.78125 1.04167 1.04167 1.5625 1.5625 1.04167 1.5625 0.78125 0.520833 1.5625 0.78125 1.04167 1.04167 1.5625 1.5625 1.04167 1.5625 0.78125 0.520833 1.5625 0.78125 1.04167 1.04167 1.5625 1.5625 1.04167 1.5625 0.781251 0.520833 1.5625 0.78125 1.04167 1.04167 1.5625 1.5625 1.04167 1.5625 0.78125 0.520833 1.5625 0.78125 1.04167 1.04167 1.5625 1.5625 1.04167 1.5625 0.78125 0.520833 1.5625 0.781249 1.04167 1.04167 1.5625 1.5625 1.04167 1.5625 0.781251 0.520833 1.5625 0.78125 1.04167 1.04167 1.5625 1.5625 1.04167 1.5625 0.781251 0.520834 1.5625 0.78125 1.04167 1.04167 1.5625 1.5625 1.04167 1.5625 0.78125 0.520833 1.5625 0.78125 1.04167 1.04167 1.5625 1.5625 1.04167 1.5625 0.781251 0.520834 1.5625 0.78125 1.04167 1.04167 1.5625 0.781252 1.04167 0.781251 0.781251 0.520834 1.5625 0.260417 0.520835 1.04167 1.5625 1.5625 1.04167 1.5625 0.78125 0.520833 1.5625 0.78125 1.04167 1.04167 1.5625 1.5625 1.04167 1.5625 1.5625 1.04167 1.04167 1.5625 1.5625 1.04167 1.5625 1.5625 1.04167 1.04167 1.5625 1.5625 1.04167 1.5625 1.5625 1.04167 1.04167 1.5625 1.5625 1.04167 1.5625 1.5625 1.04167 1.04167 1.5625 1.5625 1.04167 1.5625 1.5625 1.04167 1.04167 1.5625 1.5625 1.04167 1.5625 1.5625 1.04167 1.04167 1.5625 1.5625 1.04167 1.5625 1.5625 1.04167 1.04167 1.5625 1.5625 1.04167 1.5625 1.5625 1.04167 1.04167 1.5625 1.5625 1.04167 1.5625 1.5625 1.04167 1.04167 1.5625 1.5625 1.04167 1.5625 1.5625 1.04167 1.04167 1.5625 1.5625 1.04167 1.5625 1.5625 1.04167 1.04167 1.5625 1.5625 1.04167 1.5625 1.5625 1.04167 1.04167 1.5625 1.5625 1.04167 1.5625 1.5625 1.04167 1.04167 1.5625 1.5625 1.04167 1.5625 1.5625 1.04167 1.04167 1.5625 0.781252 1.04167 0.781251 1.5625 0.520835 1.04167 1.5625 1.5625 1.04167 1.5625 0.78125 0.520833 1.5625 0.78125 1.04167 1.04167 1.5625 1.5625 1.04167 1.5625 1.5625 1.04167 1.04167 1.5625 1.5625 1.04167 1.5625 1.5625 1.04167 1.04167 1.5625 1.5625 1.04167 1.5625 1.5625 1.04167 1.04167 1.5625 1.5625 1.04167 1.5625 1.5625 1.04167 1.04167 1.5625 1.5625 1.04167 1.5625 1.5625 1.04167 1.04167 1.5625 1.5625 1.04167 1.5625 1.5625 1.04167 1.04167 1.5625 1.5625 1.04167 1.5625 1.5625 1.04167 1.04167 1.5625 1.5625 1.04167 1.5625 1.5625 1.04167 1.04167 1.5625 1.5625 1.04167 1.5625 1.5625 1.04167 1.04167 1.5625 1.5625 1.04167 1.5625 1.5625 1.04167 1.04167 1.5625 1.5625 1.04167 1.5625 1.5625 1.04167 1.04167 1.5625 1.5625 1.04167 1.5625 1.5625 1.04167 1.04167 1.5625 1.5625 1.04167 1.5625 1.5625 1.04167 1.04167 1.5625 1.5625 1.04167 1.5625 1.5625 1.04167 1.04167 1.5625 0.781252 1.04167 0.781251 1.5625 0.520834 0.520833 1.5625 0.78125 1.04167 1.5625 0.260417 0.520833 0.78125 0.78125 1.04167 0.520833 1.5625 0.78125 1.04167 1.5625 0.78125 1.04167 0.520833 1.5625 0.78125 1.04167 1.5625 0.78125 1.04167 0.520833 1.5625 0.78125 1.04167 1.5625 0.78125 1.04167 0.520834 1.5625 0.78125 1.04167 1.5625 0.78125 1.04167 0.520833 1.5625 0.78125 1.04167 1.5625 0.78125 1.04167 0.520834 1.5625 0.781251 1.04167 1.5625 0.78125 1.04167 0.520834 1.5625 0.781251 1.04167 1.5625 0.781251 1.04167 0.520834 1.5625 0.781251 1.04167 1.5625 0.78125 1.04167 0.520834 1.5625 0.781251 1.04167 1.5625 0.781251 1.04167 0.520833 1.5625 0.781251 1.04167 1.5625 0.78125 1.04167 0.520834 1.5625 0.781251 1.04167 1.5625 0.78125 1.04167 0.520834 1.5625 0.781251 1.04167 1.5625 0.78125 1.04167 0.520834 1.5625 0.781251 1.04167 1.5625 0.78125 1.04167 0.520834 1.5625 0.781251 1.04167 1.5625 0.78125 1.04167 0.520834 1.5625 0.520834 1.04167 0.781251 0.78125 0.520835 1.04167 1.5625 1.5625 0.520833 0.78125 0.260417 0.520833 0.520833 0.78125 0.520833 0.78125 0.260417 0.78125 1.04167 1.04167 1.5625 1.5625 0.520833 0.78125 0.260417 0.520833 0.78125 0.78125 1.04167 1.04167 1.5625 1.5625 0.520833 0.78125 0.260417 0.520833 0.78125 0.78125 1.04167 1.04167 1.5625 1.5625 0.520833 0.78125 0.260417 0.520833 0.78125 0.78125 1.04167 1.04167 1.5625 1.5625 0.520833 0.78125 0.260417 0.520833 0.78125 0.78125 1.04167 1.04167 1.5625 1.5625 0.520833 0.78125 0.260417 0.520833 0.78125 0.78125 1.04167 1.04167 1.5625 1.5625 0.520833 0.78125 0.260417 0.520833 0.78125 0.78125 1.04167 1.04167 1.5625 1.5625 0.520833 0.78125 0.260417 0.520834 0.78125 0.78125 1.04167 1.04167 1.5625 1.5625 0.520833 0.78125 0.260417 0.520834 0.78125 0.78125 1.04167 1.04167 1.5625 1.5625 0.520833 0.78125 0.260417 0.520833 0.78125 0.78125 1.04167 1.04167 1.5625 1.5625 0.520833 0.781249 0.260417 0.520833 0.78125 0.781249 1.04167 1.04167 1.5625 1.5625 0.520832 0.78125 0.260416 0.520834 0.78125 0.78125 1.04167 1.04167 1.5625 1.5625 0.520833 0.78125 0.260417 0.520834 0.78125 0.78125 1.04167 1.04167 1.5625 1.5625 0.520833 0.78125 0.260417 0.520834 0.78125 0.78125 1.04167 1.04167 1.5625 1.5625 0.520833 0.78125 0.260417 0.520834 0.78125 0.78125 1.04167 1.04167 1.5625 0.781252 0.520833 0.520834 0.260417 0.520834 0.78125 0.260417 0.520835 1.04167 1.5625 1.5625 0.520833 0.78125 0.78125 0.520833 0.78125 0.260417 1.04167 1.04167 1.5625 1.5625 0.520833 0.78125 0.78125 1.04167 1.04167 1.5625 1.5625 0.520833 0.78125 0.78125 1.04167 1.04167 1.5625 1.5625 0.520833 0.78125 0.78125 1.04167 1.04167 1.5625 1.5625 0.520833 0.78125 0.78125 1.04167 1.04167 1.5625 1.5625 0.520833 0.78125 0.78125 1.04167 1.04167 1.5625 1.5625 0.520833 0.78125 0.78125 1.04167 1.04167 1.5625 1.5625 0.520833 0.78125 0.78125 1.04167 1.04167 1.5625 1.5625 0.520833 0.78125 0.78125 1.04167 1.04167 1.5625 1.5625 0.520833 0.78125 0.78125 1.04167 1.04167 1.5625 1.5625 0.520833 0.781249 0.78125 1.04167 1.04167 1.5625 1.5625 0.520832 0.78125 0.78125 1.04167 1.04167 1.5625 1.5625 0.520833 0.78125 0.78125 1.04167 1.04167 1.5625 1.5625 0.520833 0.78125 0.78125 1.04167 1.04167 1.5625 1.5625 0.520833 0.78125 0.78125 1.04167 1.04167 1.5625 0.781252 0.520833 0.520834 0.78125 0.520835 1.04167 1.5625 1.5625 0.520833 0.78125 0.78125 0.520833 0.78125 0.260417 1.04167 1.04167 1.5625 1.5625 0.520833 0.78125 0.78125 1.04167 1.04167 1.5625 1.5625 0.520833 0.78125 0.78125 1.04167 1.04167 1.5625 1.5625 0.520833 0.78125 0.78125 1.04167 1.04167 1.5625 1.5625 0.520833 0.78125 0.78125 1.04167 1.04167 1.5625 1.5625 0.520833 0.78125 0.78125 1.04167 1.04167 1.5625 1.5625 0.520833 0.78125 0.78125 1.04167 1.04167 1.5625 1.5625 0.520833 0.78125 0.78125 1.04167 1.04167 1.5625 1.5625 0.520833 0.78125 0.78125 1.04167 1.04167 1.5625 1.5625 0.520833 0.78125 0.78125 1.04167 1.04167 1.5625 1.5625 0.520833 0.78125 0.78125 1.04167 1.04167 1.5625 1.5625 0.520833 0.78125 0.78125 1.04167 1.04167 1.5625 1.5625 0.520833 0.78125 0.78125 1.04167 1.04167 1.5625 1.5625 0.520833 0.78125 0.78125 1.04167 1.04167 1.5625 1.5625 0.520833 0.78125 0.78125 1.04167 1.04167 1.5625 0.781252 0.520833 0.520834 0.78125 0.520835 0.520833 1.5625 0.78125 0.520833 0.78125 0.260417 0.520833 0.520833 0.260417 1.04167 0.520833 1.5625 0.78125 0.520833 0.78125 0.520833 1.04167 0.520833 1.5625 0.78125 0.520833 0.78125 0.520833 1.04167 0.520833 1.5625 0.78125 0.520833 0.78125 0.520833 1.04167 0.520833 1.5625 0.78125 0.520833 0.78125 0.520834 1.04167 0.520833 1.5625 0.78125 0.520833 0.78125 0.520833 1.04167 0.520834 1.5625 0.781251 0.520833 0.78125 0.520833 1.04167 0.520834 1.5625 0.781251 0.520833 0.78125 0.520834 1.04167 0.520834 1.5625 0.781251 0.520833 0.78125 0.5208