# vtk DataFile Version 5.1
vtk output
ASCII

DATASET UNSTRUCTURED_GRID
POINTS 15779 float
-0.434573 -0.508267 0
-0.434573 0.491738 0
0.565432 0.491737 0
0.565431 -0.508267 0
-0.52956 -0.536497 4
0.470445 -0.536497 4
0.470444 0.463508 4
-0.52956 0.463508 4
-0.434573 -0.00826452 0
0.0654296 0.491738 0
0.565432 -0.00826489 0
0.0654292 -0.508267 0
-0.0295575 -0.536497 4
0.470445 -0.0364947 4
-0.0295576 0.463508 4
-0.52956 -0.0364946 4
0.41262 0.518832 2.04746
0.475575 -0.469432 1.99308
-0.516995 -0.49589 1.95676
-0.534103 0.474323 1.98783
0.220444 -0.536497 4
-0.52956 -0.286496 4
-0.563244 0.428384 3.00757
-0.44998 -0.462459 0.963766
-0.504489 0.461835 0.987107
0.433875 0.541893 1.03416
0.0495943 -0.686253 1.47612
-0.648785 -0.0294805 0.481933
-0.699853 -0.0610528 1.46039
-0.00424433 0.713675 0.501224
0.718491 0.0393797 0.5361
-0.566668 0.301441 0.231878
-0.279559 -0.536497 4
-0.52956 0.213507 4
0.527621 -0.421742 1.01521
0.399045 0.474616 3.00347
0.428329 -0.504515 2.98652
-0.522178 -0.5405 2.98947
-0.726029 -0.0757108 3.50634
-0.0864735 0.663755 2.51972
-0.084527 0.686412 1.51551
-0.179589 -0.641184 1.20734
0.27531 -0.619107 1.74258
-0.610743 -0.242739 0.729314
-0.725536 -0.0516039 2.48282
-0.0195917 -0.696599 2.47046
0.638296 -0.0358796 3.47412
0.629869 -0.001745 2.509
-0.0659358 0.638236 3.50026
0.666919 0.0898912 1.54507
0.0546668 -0.653872 0.525692
0.0139608 -0.726996 3.49783
-0.354883 0.598258 2.75474
-0.646573 -0.349182 3.74231
-0.700821 0.162168 3.27109
0.186183 0.631846 2.29293
0.576095 0.310785 1.7926
0.193452 0.599039 3.25182
-0.314711 0.575768 3.73911
0.596171 -0.268077 2.24748
0.544509 0.270744 2.75027
0.654353 -0.162868 1.28013
-0.205696 -0.619885 0.269154
0.31122 -0.584074 0.76878
0.369404 0.451129 0.290518
0.363786 0.336948 1.41588
0.0654294 -0.00826471 0
-0.540846 0.109856 2.74778
0.44762 -0.231681 0.639131
-0.154558 -0.161495 4
-0.434573 -0.258266 0
-0.184572 0.241737 0
0.315431 0.241736 0
0.141611 -0.499825 3.23354
0.427005 0.0655089 3.11976
-0.464311 0.125695 0.865785
-0.496119 -0.219369 2.23977
0.351531 0.341018 3.16854
-0.570782 -0.0467385 3.10265
-0.0595344 -0.463791 0.871878
-0.184572 0.491738 0
-0.669043 -0.339358 2.74439
-0.248765 0.657419 0.72174
0.31543 -0.258266 0
0.220443 0.213506 4
0.416703 -0.247297 1.63051
-0.359999 0.325494 0.403431
-0.217005 0.458548 1.23415
-0.386754 -0.399127 3.60131
-0.502888 -0.158756 0.907868
-0.106771 -0.503159 1.86171
0.488927 -0.328556 0.286341
0.46032 0.197301 2.91794
0.551738 -0.127886 0.552119
-0.184572 -0.508267 0
-0.332923 -0.480704 3.42144
0.527762 0.0393632 3.7677
0.470445 -0.286496 4
-0.530363 0.104488 3.64738
0.471519 -0.247934 0.852401
0.0859411 0.560045 0.216377
-0.2924 -0.367468 0.392173
0.611201 -0.0206811 0.234283
-0.279559 0.463508 4
-0.52662 -0.319801 3.10647
-0.418743 -0.379573 2.58588
-0.353091 0.435684 2.58899
-0.175718 0.433837 3.13155
-0.529087 0.251322 2.84609
-0.675324 0.224095 2.23561
0.109218 0.44012 3.64294
-0.0655533 0.548296 0.8981
-0.434573 0.241737 0
0.353763 -0.35156 2.71449
0.180885 0.480469 3.41503
-0.475468 0.214183 1.72127
0.545504 0.11868 1.36133
0.580338 0.250533 3.72991
0.58982 -0.283723 3.22917
0.499818 -0.00639192 2.67821
0.282593 -0.656795 3.73962
0.293072 -0.468419 0.605795
-0.0735848 -0.52984 1.63861
-0.655318 0.194648 1.23091
-0.37305 -0.346796 1.23933
-0.162905 0.476342 2.14636
0.0954431 -0.286496 4
-0.297626 -0.64475 2.2106
-0.591631 -0.136387 3.33792
0.0724189 -0.550158 0.353613
0.47053 0.233463 1.07631
0.177957 -0.518945 1.91238
-0.394664 -0.272329 0.517322
-0.391142 0.399071 1.15686
-0.617956 -0.027032 2.65729
0.237301 -0.487228 0.943192
-0.248766 0.461191 0.517387
0.445292 -0.265508 3.48449
0.28226 -0.425294 2.26344
0.360454 0.258504 2.38327
-0.587056 -0.094295 2.32752
0.193378 0.681233 1.27959
0.170856 0.494474 2.45393
-0.046989 0.525325 1.78163
0.485903 0.157831 1.9477
-0.543787 0.178512 1.96269
-0.350669 -0.394555 0.798786
-0.161829 0.479082 3.34222
-0.377479 0.420125 0.753747
-0.389948 0.312561 3.3969
0.368399 -0.399596 3.23521
-0.279559 0.0885059 4
0.244954 -0.640831 2.73455
-0.30485 -0.671597 3.25396
-0.098418 0.549734 2.34945
0.153937 0.535679 0.984601
0.334412 0.268645 3.39559
0.345153 -0.374071 0.388499
0.630225 0.307465 0.775881
0.398566 0.255091 3.59439
0.515467 0.0447261 1.12851
0.470033 0.290152 1.6223
0.488588 -0.0301244 3.22926
-0.341895 0.606784 1.74596
-0.390304 -0.482268 2.8296
-0.483418 0.152716 0.668948
0.203394 0.4259 2.85701
-0.453383 0.354395 3.17686
-0.301815 0.45797 3.58133
-0.397014 0.325019 2.44306
-0.643167 -0.30835 1.71227
-0.0736429 0.549582 2.68963
-0.0089067 -0.519584 0.672032
-0.527537 -0.0887879 1.99181
0.355957 0.400853 2.21482
0.435947 -0.352569 1.1898
0.0113733 -0.599401 3.31354
0.428618 -0.286858 1.83318
-0.244292 -0.58118 3.07761
0.145909 -0.502707 1.32859
-0.102829 0.560463 1.34225
0.156789 0.419604 2.68452
-0.0637166 -0.550643 3.77905
-0.142905 -0.216599 0
0.438886 0.345857 0.585896
0.113622 -0.514685 2.37152
-0.467188 0.328494 2.28866
-0.293021 -0.515869 2.38893
0.111062 0.537238 1.54782
0.00799831 -0.487946 1.07615
-0.529198 0.18954 1.43309
-0.519806 0.0455686 1.08869
0.0746096 -0.0156614 4
0.461815 0.187327 2.47832
-0.0303156 -0.541802 2.89619
0.0636161 0.585948 0.678643
-0.457615 -0.0644093 0.224644
0.428311 -0.260801 2.95867
0.120216 0.530098 2.10365
0.543569 0.109889 0.829628
-0.422733 -0.308581 1.49858
-0.382844 0.342262 1.48284
0.349478 -0.315106 2.4942
-0.160969 -0.533037 2.64076
0.343203 -0.353372 1.33924
-0.572624 -0.026624 1.71772
0.267045 -0.49223 1.56994
-0.303179 0.469669 2.03005
0.53582 0.0013978 1.6878
-0.300796 0.486341 1.58296
-0.448078 -0.393343 2.13125
-0.0520985 0.2077 4
0.220443 0.463508 4
0.495717 -0.0960188 2.1311
0.0863007 0.501642 3.09642
-0.292976 0.493916 2.93165
0.334935 -0.426092 3.654
0.450953 0.313326 0.369043
0.158704 0.468964 1.87706
-0.380682 -0.448948 1.79853
-0.0657341 -0.525308 2.08273
0.436386 0.143602 2.14808
-0.0880231 0.0722247 1.94199
0.263934 0.0676009 0.638825
0.151093 -0.0415358 3.62443
-0.0541566 -0.0427013 2.71593
-0.046472 0.595169 0.386511
-0.446649 -0.424072 3.75035
-0.00152189 0.162579 1.3677
-0.484108 -0.255687 0.625836
0.601911 0.130822 0.435148
0.10892 -0.248518 2.56859
0.0827905 -0.275627 0
0.184698 0.175298 3.55851
-0.110066 -0.115588 3.16461
0.431012 -0.0522471 2.89046
0.489116 -0.219101 2.43417
0.173054 -0.58632 3.83178
0.196218 -0.186472 0.730078
0.103861 0.33017 0.453937
0.262614 0.243883 0.938475
-0.168343 -0.0388595 2.33122
-0.162163 0.181897 0.965909
0.121493 -0.122298 1.10754
-0.160245 0.507353 3.80592
0.176369 -0.5664 2.89584
-0.0901178 0.0324804 3.77986
-0.110192 0.366753 0.680083
0.000783639 0.553819 1.16655
0.355628 -0.0876717 1.30847
-0.163738 0.0125688 0
-0.154751 -0.296998 2.7358
-0.206802 -0.0637553 1.64401
0.159972 0.416975 3.78007
-0.5794 -0.235846 3.52757
0.225676 -0.0396394 0.291758
-0.286668 0.147527 3.01579
-0.529465 0.111958 0.530001
0.234241 0.0410655 2.75066
-0.257325 0.178032 2.74014
-0.283746 -0.142647 2.90181
-0.355676 0.0514831 2.59094
-0.561394 -0.0618718 1.28821
0.181195 -0.0208991 3.25897
0.149806 0.0205231 2.44043
-0.24454 -0.490611 3.80794
0.274842 0.0179037 4
0.223936 0.118895 1.75427
0.0795246 -0.398842 2.72061
-0.247737 -0.337083 3.13095
-0.4766 0.199588 3.77119
0.0486123 0.138295 1.09682
-0.304304 -0.427022 0.252561
0.0668241 -0.168171 1.41377
-0.582872 0.154954 3.42316
-0.0367305 0.267886 2.45773
0.0654295 0.241736 0
0.128521 -0.312081 1.74337
-0.205249 -0.160203 1.02653
0.0665654 0.272907 3.25373
0.103874 -0.349502 3.74325
-0.265447 0.0311053 1.28994
0.0359069 -0.292863 3.39539
-0.0579299 0.303595 3.52778
-0.221167 -0.449384 1.66828
0.248357 0.42538 1.65829
-0.05992 -0.209879 1.89436
-0.163588 -0.292239 2.48435
-0.367337 0.375241 0.245155
-0.339026 -0.0626692 3.2771
-0.446091 0.39767 1.78956
0.0139063 -0.011713 0.850811
-0.146572 0.23775 1.67406
0.451203 -0.166795 3.7797
-0.0729006 0.0176241 3.43426
0.101677 0.216504 2.13563
-0.0675755 0.470973 2.91697
0.290253 0.0390705 1.0325
-0.0964346 -0.546637 3.00771
0.304242 0.485916 1.32039
0.347277 -0.0593286 3.42408
-0.54384 -0.0442062 3.83849
0.315431 -0.0082648 0
-0.392205 -0.218967 0.184908
-0.301039 0.0196711 1.83301
-0.152601 -0.34955 2.23347
-0.0293941 0.0250089 0.52143
-0.17358 -0.545991 1.41167
0.201621 0.0959556 3.02593
0.0839912 -0.502709 0.195942
-0.31365 -0.0385941 0.602952
0.0526957 -0.253394 0.235596
0.0813137 0.226069 0.818974
-0.239594 -0.200473 3.72674
-0.0157009 -0.250556 0.471139
-0.448275 -0.0730861 1.53541
-0.0788145 -0.189222 0.686701
-0.588906 -0.249066 2.89634
-0.0390045 0.202529 2.82697
-0.314265 0.164741 2.12274
-0.169079 0.233992 2.28782
-0.547393 -0.259787 1.91403
-0.357419 -0.128053 2.48027
0.174621 -0.0385825 1.92405
-0.075833 0.487559 1.96577
0.0997299 -0.250137 2.99354
-0.0575268 0.219772 0.297795
-0.232431 -0.00327576 0.357139
-0.305197 -0.402603 1.44532
-0.312461 -0.229895 1.99531
-0.219883 0.0972949 0.76584
-0.109156 -0.125606 2.11798
0.288534 -0.230188 0.983434
0.305683 -0.0719678 1.53861
0.00405659 0.281681 1.82621
0.0326642 0.0375579 1.59094
0.103072 0.293525 1.53519
-0.0640333 -0.609772 3.61724
0.12519 -0.240311 2.33492
0.388705 -0.418174 2.15262
-0.0969799 -0.355556 1.25729
0.23261 -0.0155489 2.17758
-0.342597 0.00851131 3.49836
0.28974 -0.25672 2.01206
0.219238 -0.17514 0.462395
-0.105532 -0.263836 1.55955
-0.262216 0.136147 3.64423
0.130301 0.342202 1.21883
-0.202254 0.167478 3.26373
-0.0582468 0.27852 3.77987
-0.194429 -0.196916 3.4978
-0.0864633 0.51304 1.03899
0.315608 0.464244 1.91834
-0.0154454 -0.0118685 0.237011
0.0394984 0.278281 3.02607
-0.0209319 -0.00142143 2.96098
0.0339699 0.00997459 3.70436
0.109751 -0.191433 3.68255
0.00811058 -0.158661 3.76054
-0.116302 -0.0915148 3.63913
-0.0159084 -0.133376 3.56159
-0.0557235 -0.297312 3.62227
-0.103485 -0.428042 2.15732
-0.200975 -0.386377 2.03888
-0.241354 -0.299966 2.11447
-0.14007 -0.234947 2.17689
-0.0830145 -0.324714 2.10554
-0.206552 -0.186083 2.05732
-0.0168697 -0.114428 0.49777
-0.132015 -0.135507 0.410726
[...]
POINT_DATA 15779
SCALARS scalars float 1
LOOKUP_TABLE default
1.37478 1.36271 1.45557 1.46688 1.46093 1.41989 1.36752 1.41009 0.934609 0.993894 1.06546 1.01039 1.03692 0.97113 0.963961 1.03021 0.101203 0.0397348 0.0466436 0.0443897 1.13826 1.16096 1.06568 0.951411 0.961931 0.935438 0.487981 1.24154 0.483927 1.31102 1.30315 1.33432 1.16394 1.12908 0.922281 0.979837 0.928437 1.04079 1.35448 0.609225 0.45564 0.695409 0.254415 1.14033 0.596178 0.519919 1.22955 0.514981 1.27117 0.445064 1.23709 1.33029 0.860525 1.42681 1.24762 0.343086 0.208344 1.14099 1.3495 0.251085 0.772028 0.681268 1.32383 1.10055 1.11763 0.400746 0.0659493 0.641798 0.857858 0.40029 1.06384 0.656245 0.749344 0.813487 0.708634 0.779208 0.219642 0.846515 0.878687 0.726767 1.08277 0.85623 1.18471 0.760293 0.66042 0.261006 0.957848 0.539077 1.03483 0.84151 0.107641 1.11078 0.720821 1.00931 1.09793 0.998335 1.06787 1.10887 1.03081 0.794954 1.11251 0.933122 1.1438 1.09945 0.886062 0.512568 0.592073 0.803027 0.763058 0.327214 0.940424 0.801626 1.05605 0.547349 0.986565 0.156317 0.473206 1.31561 1.11127 0.541551 1.39669 0.968826 0.278646 0.712056 0.528953 0.165994 0.58002 0.251913 1.05405 1.07132 0.660441 0.0931358 0.903026 0.658906 0.634778 0.80028 0.966496 0.947381 0.178924 0.293881 0.35829 0.717282 0.408581 0.131295 0.0868066 0.0753266 0.863753 0.951051 0.931199 0.92677 0.8816 0.570979 0.758307 1.18775 0.38149 0.745094 0.829795 0.949381 1.1468 0.963632 0.603971 0.281238 0.85819 0.19083 0.74183 0.898038 0.69568 0.958911 1.08562 0.411928 0.242179 0.635931 0.92956 0.0321488 0.20676 0.641881 0.993359 0.117709 0.900788 0.466138 0.505177 0.545629 1.05283 0.551304 0.961236 0.28696 0.292752 0.337225 0.353156 0.607859 0.425766 0.642377 0.178851 0.421042 0.645541 1.00963 0.959865 0.707606 0.145756 0.857138 0.340212 0.332789 0.33285 0.514391 0.451905 0.206897 0.324854 0.076007 0.27395 0.288985 0.123156 0.458017 1.07222 0.125168 0.863186 0.822374 1.03669 1.00124 0.0522855 0.147281 0.0809455 0.130191 0.0313919 0.432144 0.315245 0.0520844 1.12777 1.17673 0.127507 0.987847 1.1138 0.199716 0.552147 0.543071 0.196464 0.596805 0.345113 1.19005 0.434317 0.625667 0.483107 0.100816 0.36187 0.204297 1.10013 0.720654 0.189603 0.648283 0.619367 0.334817 0.394322 0.31589 0.103318 0.938211 1.15608 0.386887 0.491141 1.02332 0.310463 0.389419 0.377313 0.355084 0.520993 0.330131 0.125093 1.04435 0.583735 0.0843068 0.400277 0.588096 1.01415 0.170112 1.07224 0.155235 1.09294 0.248157 0.49607 0.132946 0.373678 0.541925 0.680261 0.26948 0.469 0.636052 0.236089 0.228054 0.0530979 0.22287 1.08968 0.564963 0.116875 0.0313794 0.0947785 0.961966 0.147799 0.0971622 0.707864 0.367477 0.740826 0.561623 0.65009 1.05748 0.565491 0.942881 0.0549476 0.123296 0.111364 0.459894 0.38318 1.00384 0.597555 0.50011 0.358528 0.564936 0.475379 0.271976 0.378172 0.806534 0.332695 0.111906 0.181876 0.0620469 0.293024 0.0401558 0.0337482 0.334544 0.466499 0.502757 0.373834 0.0357365 0.421397 0.0346017 0.502971 0.20186 0.0395023 0.0186566 0.185061 1.13118 0.114085 0.112365 0.375772 0.0748086 0.623222 0.0242951 0.494059 0.172975 0.576178 0.391338 0.481214 0.608683 0.459638 0.67065 0.0358075 0.0924934 0.488433 0.0702568 0.117726 0.398477 0.266331 0.235502 0.193138 0.527563 0.0984108 0.0439648 0.0712211 0.0622365 0.0434333 0.0392432 0.226604 0.398846 0.293685 0.0879208 0.277629 0.2978 0.907792 0.711317 0.817969 0.660032 0.576045 0.457251 0.727789 0.732724 0.919177 0.772785 0.555357 0.742562 0.653323 0.446041 0.71524 0.637519 0.342614 0.403735 0.658415 0.530096 0.53106 0.509686 0.477675 0.371014 1.01749 1.13954 0.96261 0.840219 1.09935 0.969949 1.04376 0.769347 0.863454 0.882753 0.789951 0.636726 0.515686 0.362155 0.576352 0.526152 0.326571 0.449745 0.13 0.156293 0.0529553 0.0860764 0.188652 0.0990411 0.162932 0.100771 0.103907 1.00936 0.859666 1.20507 1.21496 0.876806 1.09378 0.95399 0.794234 1.05209 0.931728 0.787657 0.726 0.842878 0.96533 0.939819 0.77418 1.00264 1.11351 0.939384 1.2698 1.29042 0.953932 1.07437 0.421032 0.393168 0.316552 0.343803 0.42007 0.314581 1.04667 1.12116 0.895188 0.706561 0.891709 0.758103 0.201644 0.163382 0.112484 0.101592 0.159268 0.0811203 0.738638 0.767998 0.579143 0.548737 0.722003 0.583094 1.38493 1.26904 1.20762 1.21156 1.26662 1.06941 0.71285 0.538975 0.516198 0.46873 0.539632 0.300434 0.281457 0.243293 0.336803 0.424793 0.34013 0.40819 0.648922 0.523123 0.744688 0.788744 0.623437 0.664052 0.191243 0.17641 0.0630033 0.163102 0.368866 0.184429 0.747 0.662126 0.633695 0.56608 0.574296 0.439661 0.247099 0.31044 0.136944 0.199655 0.131471 0.0891959 0.164132 0.203136 0.283496 0.183055 0.331006 0.0880715 0.0842424 0.0413009 0.134534 0.18069 0.16102 0.260701 0.130195 0.210754 0.266436 0.176198 0.129595 0.686688 0.631731 0.485568 0.528688 0.687721 0.592641 1.39124 1.19947 1.22138 0.73164 0.588985 0.561175 0.550626 0.641123 0.413376 0.655325 0.583337 0.707074 0.562363 0.441216 0.572931 1.24914 1.23761 1.4024 1.29741 1.11129 1.28855 0.363136 0.355393 0.285166 0.261628 0.335122 0.282745 1.01283 1.12117 0.821752 0.85464 1.18882 1.03526 0.260286 0.366847 0.480361 0.33631 0.216958 0.429654 1.03438 0.935649 0.848831 0.907067 1.00463 0.869201 0.241568 0.190346 0.128567 0.0916902 0.155574 0.0683135 0.315538 0.389375 0.241315 0.0121438 0.235737 0.243129 0.385556 0.298019 0.196494 0.266221 0.45637 0.217116 0.0583993 0.0438713 0.0514243 0.125966 0.107365 0.0877127 0.913945 0.751532 0.801553 0.820612 0.80742 0.679935 0.132413 0.115054 0.193274 0.138424 0.0397864 0.102964 0.920006 0.987764 0.975122 0.729151 0.8283 0.77426 0.335606 0.576369 0.375901 0.321149 0.47779 0.545799 0.385989 0.309972 0.434238 0.562681 0.484729 0.475682 0.271454 0.368456 0.433378 0.292838 0.244912 0.358856 0.0856555 0.0503257 0.0327022 0.0845042 0.0493399 0.0770445 1.17198 1.03448 1.0279 1.05856 0.976396 0.888907 0.919202 0.998809 0.817998 0.593987 0.658354 0.580828 1.05388 0.836226 0.979553 0.804074 0.692428 0.653408 1.08288 0.872194 0.796239 0.782947 0.87748 0.583159 0.270441 0.354191 0.0869893 0.152666 0.184365 0.859195 0.492843 0.687789 0.819828 0.589263 0.451145 0.215755 0.125865 0.186627 0.31803 0.267588 0.270456 0.180899 0.299713 1.01503 0.859384 0.933586 0.852353 0.751891 1.25271 1.14696 1.08635 0.981979 0.639947 0.443165 0.944271 0.824424 0.885125 0.794525 0.661325 0.821257 1.03897 0.62212 0.780034 0.835384 0.551817 0.498902 0.328058 0.0928465 0.0638586 0.0605347 1.39628 1.16484 1.1974 1.28089 1.24787 1.03233 0.0696017 0.0669858 0.115759 0.0455523 0.0908556 0.0203963 0.377434 0.238705 0.211971 0.392526 0.388989 0.192918 0.70687 0.738372 0.526805 0.471959 0.723668 0.413268 0.570702 0.382602 0.377665 0.615728 0.514081 0.568128 0.76557 0.907757 0.38375 0.766348 0.0835589 0.124279 0.092767 0.0466484 0.111281 0.155582 0.124621 0.185392 0.594421 0.548113 0.444741 0.510883 0.618392 0.448739 1.17343 1.07406 1.10232 0.850508 0.941281 0.143374 0.0882096 0.0756515 0.0471071 0.0726426 0.0492571 0.1632 0.137634 0.181985 0.256772 0.237429 0.419737 0.212359 0.352673 0.264402 0.941665 0.720438 0.581349 0.774474 0.180896 0.0775811 0.115676 0.231845 0.145278 0.0981006 0.544931 0.43677 0.384996 0.498962 0.374337 0.100917 0.081456 0.0775928 0.125807 0.154368 0.109935 0.332295 0.237012 0.0320825 0.407102 0.625394 0.0214582 0.146472 0.135583 0.0699713 0.0501373 0.0922385 0.592858 0.503466 0.534459 0.99867 0.966609 0.961289 0.772299 0.854066 0.089062 0.175072 0.0498851 0.351226 0.469891 0.266875 0.0869532 0.132231 0.0597483 1.21839 1.05175 1.09877 1.1417 1.08042 1.24197 1.20546 1.01716 1.15338 0.601762 0.648343 0.415709 0.63256 0.472537 0.389804 0.382114 0.354547 0.276229 0.303896 0.274529 0.815834 0.567196 0.592237 0.552101 0.251203 0.173005 0.193499 0.122916 0.131083 0.764356 1.00877 1.0131 0.0693752 0.0564515 0.13263 0.0454954 0.0103962 0.0389692 0.64794 0.502316 0.493071 0.563248 0.349673 0.0829859 0.0502994 0.06102 0.0877441 0.0479425 0.817245 0.809302 1.03955 1.0428 0.761397 0.956652 0.874227 0.829748 0.943975 0.76835 0.635002 0.738257 0.0786622 0.124544 0.0812266 0.230099 0.860903 0.817724 0.758145 0.572951 0.23439 0.320986 0.248812 0.28591 0.300081 0.20281 0.180172 0.220902 0.266955 0.775399 0.705835 1.09551 0.865621 0.481773 0.793834 0.0841186 0.154009 0.218685 0.573553 0.515304 0.430006 0.385547 0.343114 0.43204 0.377323 0.281167 0.196459 0.152899 0.164297 0.19533 0.100665 0.0519895 0.0796383 0.00974874 0.0277896 0.584558 0.533653 0.365286 0.259493 0.516661 0.251567 0.301498 0.258817 1.18773 1.10407 0.148589 0.252959 0.182573 0.103924 0.154991 0.199863 0.0412267 0.0256461 0.07209 0.0784092 0.0313365 0.2006 0.217344 0.269481 1.18046 0.855353 1.0853 0.62829 0.745729 0.585279 0.452303 0.585855 0.552719 0.466576 0.342187 0.348773 0.403793 0.417731 0.321921 0.490302 0.451596 0.394715 0.305676 0.405955 0.298732 0.187757 0.249407 0.188396 0.0949449 0.770605 0.766639 0.967773 1.00184 0.990984 0.261593 0.300737 0.277561 0.193501 0.211343 1.32136 1.20894 1.16709 1.19621 1.22185 1.05437 0.130629 0.165465 0.843293 0.755892 0.512781 0.739689 0.499261 0.410156 0.313402 0.255257 0.121673 0.390548 0.526594 0.307382 0.315687 0.504517 0.607183 0.844405 0.650899 0.604201 0.622828 0.596184 0.353356 1.02502 0.793446 1.01185 0.808857 0.775049 0.758086 0.885398 0.561701 0.696618 0.614937 0.58139 0.502068 0.573389 0.0298372 0.0872985 0.406201 0.711632 0.776628 0.571186 0.451042 0.803968 0.114798 0.255102 1.15599 0.926353 0.875028 0.846591 0.572526 0.391796 0.33354 1.07455 0.841151 1.00315 0.97885 0.747595 0.743322 0.578605 0.444828 1.14858 1.16375 1.02441 1.02865 1.22298 1.02525 0.944515 1.08636 1.01485 0.727462 0.771442 0.885451 0.629181 0.622614 0.28321 0.310136 0.260116 0.169721 0.134519 0.104776 0.0976387 0.111152 0.0789087 0.0737807 0.36809 0.499366 0.354176 0.163162 0.136341 1.20474 1.18905 1.12856 0.365506 0.441313 0.289711 0.408711 0.604525 0.489302 1.19315 1.0331 1.05146 0.849881 0.784567 1.02705 1.05907 0.788545 1.29032 1.13116 1.29058 1.21137 1.10787 1.0428 0.20664 0.632659 0.370269 0.661384 0.501435 0.144706 0.180204 0.171482 0.0841144 0.116986 1.1437 1.26974 0.931817 1.08209 0.666661 0.500449 0.487662 0.374405 0.773159 0.834021 0.75624 0.316953 0.355553 0.252223 0.736688 0.771745 0.531108 0.994133 0.774179 0.00910151 0.481868 0.218671 0.21755 0.329998 0.196464 0.221476 0.217041 0.21282 0.0961193 0.0429843 0.0388409 0.0629017 0.0312214 0.0416249 0.0569159 1.01861 0.644796 0.96445 1.21506 1.0891 0.977722 1.03224 0.582655 0.414211 0.466546 0.452555 0.423693 0.326749 0.493461 0.970401 0.653716 0.697367 1.1416 0.806021 1.03819 0.663858 0.678742 0.924006 0.942326 0.669247 0.0223306 0.0510073 0.0335878 0.0483243 0.830867 0.556408 0.719833 0.863827 0.637555 0.778042 0.672551 0.455219 1.01493 0.796106 0.91105 1.03268 0.498657 0.339298 0.420079 0.49377 0.317067 0.256177 0.401085 1.34498 1.01397 1.1783 1.19741 0.182023 1.11153 0.933203 1.17042 1.08926 0.614653 0.742251 0.788746 0.0636634 0.0919025 0.0572489 0.0392198 0.0522273 1.148 0.947653 1.07704 0.944146 0.84444 0.0820528 1.02532 0.989339 0.918257 0.895782 0.761019 0.859015 1.0935 0.815836 0.889557 1.16557 0.85859 0.792955 0.958298 1.07545 0.751415 0.993807 0.218986 0.201033 0.352533 0.353247 1.1902 1.06223 0.248154 0.356211 0.614523 0.568287 0.588893 0.433156 0.44602 0.414803 0.145075 0.328258 0.207813 0.282168 0.103683 0.189916 0.19624 0.452318 0.720241 0.831363 0.742069 0.953934 1.12245 0.970569 0.843918 1.03585 1.06706 0.705509 0.785478 0.742347 0.411122 0.674187 1.03816 0.165675 0.164563 0.815473 0.843382 1.04895 0.756179 0.664274 0.800095 0.846812 0.455368 0.913748 1.02287 0.748526 0.753 0.659291 0.54957 0.477173 0.822256 0.481679 1.2956 1.10738 1.29693 1.30784 1.17029 1.23146 1.11885 1.07166 1.07886 0.310869 0.355364 0.164428 0.164257 0.138341 0.245722 0.135413 0.466459 1.01463 0.920084 0.721576 0.805851 0.850734 0.619442 0.66879 0.478247 0.883331 0.665511 0.676165 0.412273 0.630231 0.513293 0.541145 0.488461 0.485722 0.84634 0.807268 0.756795 0.906651 0.780853 1.1593 0.696218 0.353022 0.446503 0.22002 0.273404 0.471024 0.279689 0.691318 0.493317 0.436708 0.0378309 0.0511079 0.672994 0.467902 0.39263 0.437102 0.307948 0.376339 0.381544 1.06815 1.17034 0.611054 0.627217 0.423438 0.500373 0.73706 0.726503 0.511207 0.341661 0.320524 0.308776 0.210426 0.202196 0.186379 0.712966 0.757608 0.0768891 0.131176 0.0570878 0.106072 1.00906 0.25583 0.352158 0.224317 0.22171 0.894793 1.06351 0.887742 0.745016 0.789811 0.407673 0.227966 0.621621 0.143024 0.544834 0.746785 0.988404 0.758731 0.99404 0.738855 0.489621 0.3401 0.622418 0.400358 0.380983 0.391176 0.269757 0.206633 0.271636 0.154185 0.297673 1.05968 0.792266 1.03811 0.51846 0.572763 0.56659 0.456429 0.495008 0.852997 0.820335 0.816275 0.201983 0.240512 0.258295 0.194194 0.776489 0.806409 0.629112 0.865375 0.643626 0.0663236 0.0767094 0.0566928 0.0347267 0.160338 0.155038 0.0845815 0.562919 1.07335 1.12988 0.431979 0.360497 0.659699 0.509207 0.738231 0.679031 0.506353 0.160635 0.22016 0.243723 0.0819406 0.0660159 0.126119 0.882782 0.75844 0.810867 0.796697 0.847984 0.251033 0.212779 0.288167 0.735805 1.17387 1.09517 1.06789 0.965116 0.888209 0.786637 1.02877 0.758879 0.514254 0.850733 0.707862 0.59505 0.385732 0.448693 0.33598 0.311597 0.428246 0.355881 0.702555 0.583357 0.747124 0.848771 0.681474 0.736541 0.490022 0.733516 0.542147 0.633024 0.0674826 0.0629163 0.071814 0.0965917 0.780763 0.874234 0.830076 0.603788 0.626727 0.646058 0.728897 0.454049 1.02804 1.15324 0.960876 0.685951 0.270395 0.297467 0.273995 0.189795 0.188992 0.212181 0.125696 0.13896 0.200436 0.404412 0.26708 0.306284 0.416948 0.373906 0.254358 0.763259 0.893429 0.760267 0.56362 0.727243 1.0662 0.916536 0.986653 0.982181 0.81268 0.460989 0.455295 0.432815 0.559988 0.465445 0.36113 0.226374 0.3056 0.499252 0.311757 0.506107 0.451719 0.435545 0.249697 0.365306 0.52795 0.49316 0.377522 0.602163 0.909088 0.732305 0.750971 0.812709 0.784689 1.16357 1.19625 1.06462 0.925796 0.625667 0.560169 0.471288 0.634802 1.4444 0.0906219 0.0329592 0.105431 0.0368638 1.26229 1.06659 0.295603 0.191278 0.148894 0.845966 0.72667 0.420699 0.534931 0.95046 0.868942 0.9183 0.81585 0.670631 0.442366 0.372946 0.44349 0.143607 1.21286 1.06289 1.12268 1.08376 1.02701 0.38163 0.373566 0.421873 0.742869 1.12056 1.04861 0.91487 0.932414 0.507723 0.503021 0.110715 0.0636644 0.133476 0.0361579 0.412161 0.323186 0.51989 0.491698 0.329561 0.325005 0.939819 0.890481 0.069976 0.0494004 0.0578354 0.0166051 0.943835 0.497492 0.47658 0.508015 0.479027 0.37255 0.364477 0.405659 0.214635 0.280261 0.498653 0.709616 0.698715 0.365773 0.354621 0.484786 0.523986 0.498856 0.406314 0.269832 0.64308 0.530732 0.746313 0.811023 0.793175 0.486921 0.567088 0.0405867 0.140014 0.146051 1.20349 1.2187 1.02157 1.07444 1.20733 0.214168 1.28136 0.686309 0.546669 0.635884 0.700804 0.314345 0.50484 0.40252 0.466211 0.364971 0.378744 1.06868 0.258488 0.374557 0.154384 0.414837 0.436686 0.260375 0.164565 0.187502 0.753593 0.513998 0.194774 0.284563 0.364557 0.300083 0.0475659 0.420181 0.237443 0.422208 0.426119 0.358686 0.881996 0.424379 0.279316 0.538643 0.161751 0.0738132 0.629556 0.170767 0.334355 0.741255 0.589136 0.490432 0.204391 0.100557 0.22911 0.153119 0.096222 0.264807 0.216531 0.940258 0.685821 0.689625 0.673201 0.660107 0.277146 0.670872 0.681817 0.244169 0.357373 0.22827 1.29081 1.19177 1.15916 1.03751 0.388495 0.805536 0.25734 0.153518 0.168861 0.75258 0.691691 0.607982 0.137089 0.443192 0.525234 0.769933 0.515472 0.484477 0.750851 0.46613 0.357551 0.30557 0.0298583 0.035616 0.531529 0.861424 0.629157 0.680303 0.993892 0.618264 0.610112 0.287052 0.352634 0.223716 0.284177 0.23515 0.436428 0.113747 0.679312 0.412555 1.03701 0.784411 0.187505 0.211746 0.0712329 0.881646 0.943218 0.750382 0.0906639 0.266301 0.168031 1.10907 0.97767 0.684762 0.210285 0.219612 0.261938 0.232622 0.443018 0.872107 0.716516 0.19638 1.0292 1.17092 0.872841 0.252467 0.160494 0.744617 0.728667 0.839365 0.677329 0.682998 0.795045 0.179892 0.932988 0.851143 1.20307 0.166106 0.204491 0.0271718 0.0432223 0.620452 0.0398011 0.264999 0.318624 0.304753 0.646597 0.758534 0.773561 0.520095 0.2141 0.165181 0.10969 0.513826 0.243463 0.181137 0.0849185 0.0435149 0.053237 0.286591 0.116605 0.450853 0.279599 0.336037 0.379546 0.27151 0.399744 0.509954 0.460688 0.388619 0.473758 0.152014 0.938216 0.561912 0.550059 0.616555 0.796646 0.773495 0.947457 0.716472 0.757327 0.513487 0.489599 0.391178 0.370977 0.39268 0.332863 0.258738 0.363135 0.243971 0.381818 0.380321 0.243985 0.463633 0.284124 0.3511 0.36614 0.3243 0.275424 0.322374 0.572616 0.670106 0.0418055 0.0750566 0.835315 0.796861 0.89567 0.864855 0.341365 0.254337 0.461077 0.749002 0.764416 0.469977 0.634846 0.378753 0.105347 0.104955 0.0469555 0.801487 0.786779 0.57946 0.514061 0.969257 0.796553 0.674576 0.719958 0.0381133 1.05679 1.10011 0.856147 0.418227 0.704029 0.0635961 0.0742738 0.491657 0.276446 0.261254 0.0162481 0.0187397 0.156467 0.0381676 0.0679272 0.414872 0.754155 1.06501 0.364192 0.250434 0.252375 0.0525948 0.0443475 1.01461 0.70662 0.68316 0.118807 0.186273 0.146378 0.315539 0.155609 0.499979 0.608646 0.685317 0.91554 0.761574 0.758193 0.695118 0.531877 0.741724 0.561471 0.729465 0.532539 0.179572 0.165245 0.540621 1.25263 1.37991 1.24709 0.254126 0.384624 0.794382 0.8514 1.23938 0.815598 0.890249 0.090571 0.0345353 0.0324967 0.0435995 0.0219779 0.0400445 0.0250154 0.862261 1.30725 0.10171 0.310008 0.685346 0.585724 0.138328 1.19739 1.08003 0.0682975 0.0179908 0.466783 1.02418 0.79007 1.0791 1.03849 0.775554 1.07354 1.04378 0.832689 0.923404 0.601854 0.866027 1.35776 1.19541 1.11373 0.55135 0.435684 0.190676 0.399528 0.167522 0.173018 1.02451 0.0467231 0.188777 0.796807 0.772686 0.822618 0.681269 0.809333 0.503303 0.365325 0.76905 0.23988 0.963934 0.0658942 0.487289 0.444795 0.206681 0.149415 0.255422 0.449392 0.0541173 0.571684 0.564157 0.838639 0.419614 0.573947 0.652918 0.486047 0.58421 0.897128 0.691372 0.881309 0.638251 0.725786 0.162032 0.680738 0.451805 0.519425 0.755167 0.674552 0.59256 0.572674 0.563605 0.287792 0.712288 0.99566 0.996442 1.02828 0.678412 0.42043 0.199143 0.635095 0.567962 0.96466 0.807462 0.753334 0.884842 0.462323 0.514633 0.450339 0.447169 1.02892 0.984306 0.11695 0.758731 0.226911 0.345981 0.698427 0.170495 0.113596 1.25684 0.827629 0.987312 0.102388 0.0685472 0.541393 0.0428706 0.112245 1.34878 0.213737 1.04696 0.117029 0.744059 0.792262 0.241417 0.449423 0.177688 0.582719 0.139875 0.654436 0.683634 0.737596 0.91007 0.919373 0.822699 0.190718 0.928603 0.751835 0.468431 0.584191 1.04601 1.02026 0.60691 0.625847 0.561008 1.08453 0.96089 1.01687 0.647028 0.624533 0.97381 0.665845 0.754035 0.72075 0.49355 0.0305851 0.0414816 0.120044 0.122188 0.40529 0.410228 0.428041 0.297354 0.344264 0.725309 0.686119 0.0398764 0.0651704 0.0670201 0.914898 1.03513 0.631513 0.321662 0.118882 0.79169 0.769483 1.00324 0.465351 0.716804 0.0613762 0.626603 0.395198 0.168964 0.252275 0.591079 0.68905 0.614323 0.529932 0.76192 0.59306 1.17795 1.07497 1.04489 0.969602 0.0762835 0.303041 0.0740149 0.169341 0.0817908 0.04854 0.499875 0.127607 0.0836318 0.0732531 0.230648 0.183769 0.716972 0.617489 0.985007 0.93859 0.663411 0.201687 0.7048 0.655839 0.116111 0.952926 0.956873 0.0279038 1.09362 1.09693 1.04277 0.229473 0.890461 0.50971 0.293094 0.633303 0.679638 0.130461 0.197906 0.181178 0.189166 0.157323 0.18051 0.338715 0.442849 0.537252 0.0765502 0.422118 0.249904 0.546251 0.357512 0.362866 0.756588 0.769368 0.935723 0.985569 1.04252 0.987491 0.397407 0.912424 0.941614 1.09277 1.28909 0.0696208 0.0381514 0.867297 0.729737 0.304467 0.35231 0.346272 0.0316417 0.0803291 0.0574739 0.0515101 1.36767 0.300716 0.374166 0.3225 0.279162 0.218362 0.260805 0.255001 0.583444 0.493445 0.588989 0.531124 0.656149 0.822735 0.691487 0.937415 0.911165 0.425178 0.014618 0.0554907 0.039226 0.0601876 0.967413 0.195411 0.327111 0.305528 0.772523 0.989266 1.00476 0.962895 0.909518 0.607343 0.724038 0.76976 0.830304 0.238583 0.869481 0.934777 0.995105 1.03912 0.248557 0.164219 0.309439 0.744631 0.148011 0.103252 0.1093