# vtk DataFile Version 5.1
vtk output
ASCII

DATASET UNSTRUCTURED_GRID
POINTS 356 float
0.5 0.5 0
0.5 -0.5 0
-0.5 -0.5 0
-0.5 0.5 0
0.5 0.499999 4
-0.5 0.5 4
-0.5 -0.5 4
0.499999 -0.5 4
0.5 0 0
0 -0.5 0
-0.5 0 0
0 0.5 0
0 0.5 4
-0.5 0 4
-2.49594e-07 -0.5 4
0.5 -4.99189e-07 4
0.5 0.5 2
0.5 -0.5 2
-0.5 -0.5 2
-0.5 0.5 2
-0.25 0.5 4
0.5 0.25 4
0.5 0.5 3
0.5 -0.5 1
-0.5 -0.5 1
-0.5 0.5 1
0.5 -0.5 1.5
0.5 -0.5 0.5
-0.5 -0.5 1.5
-0.5 -0.5 0.5
-0.5 0.5 0.5
0.5 -0.5 0.25
0.25 0.5 4
0.5 -0.250001 4
0.5 0.5 1
0.5 -0.5 3
-0.5 -0.5 3
-0.5 0.5 3
0.5 0.5 3.5
0.5 0.5 2.5
-0.5 0.5 1.5
0.5 -0.5 1.25
0.5 -0.5 1.75
0.5 -0.5 0.75
-0.5 0.5 2.5
-0.5 -0.5 2.5
-0.5 -0.5 3.5
0.5 -0.5 2.5
0.5 -0.5 3.5
0.5 0.5 1.5
0.5 0.5 0.5
-0.5 0.5 3.5
0.5 0.5 2.75
0.5 0.5 3.75
0.5 0.5 3.25
0.5 0.5 2.25
0.5 0.5 1.75
0.5 -0.5 3.25
0.5 -0.5 3.75
0.5 -0.5 2.25
0.5 -0.5 2.75
0.5 0.5 1.25
0.5 0.5 0.25
0.5 0.5 0.75
-0.5 -0.25 0.25
1.39148e-08 0.5 1.375
0 0 0
-0.0312501 0.5 2.75
1.5427e-08 0.5 0.625
0.125 0.125 4
0.5 0.25 0
0.25 -0.25 0
-0.25 -0.25 0
-0.5 1.43856e-08 3.25
-1.74706e-07 -0.5 3.125
-4.4624e-08 -0.5 0.875
-0.5 -7.18399e-09 2.25
0.265625 -0.5 3.125
0.116728 0.5 3.125
0.5 -7.53413e-08 0.875
0.25 -0.5 0
-0.5 0.5 2.75
-0.5 -0.5 0.75
-0.25 0.25 0
-0.25 -0.25 4
0.5 -2.22467e-07 1.625
0.125 -0.5 0.375
-0.5 5.61528e-09 1.25
0.125 0.5 3.625
0.265625 -0.5 0.875
-1.06279e-07 -0.5 1.875
-0.25 0.5 0.25
0.282812 -0.5 2.875
-0.2375 0.5 0.5125
0.25 0.5 0
-0.150899 0.5 3.3795
-0.5 -0.25 3.75
-0.5 0.25 4
0.5 0.125 3.625
0.203125 0.5 0.875
-0.25 -0.5 0.25
0.5 0.125 0.375
-0.5 0.25 0.25
0.25 -0.5 4
-0.19267 0.5 3.0676
-0.5 0.125 2.625
0.234375 0.5 2.625
0.5 -4.02061e-07 3.125
0.191572 0.5 2.87877
-0.5 0.5 2.25
0.125 -0.5 3.625
-0.5 -0.125 0.875
0.5 -0.25 0
-0.171875 -0.5 2.75
0.282812 -0.5 3.375
-0.5 0.0625 1.75
0.265625 0.5 1.375
-0.5 -0.5 3.75
-0.5 -0.5 3.25
0.283492 -0.5 2.625
-0.5 0.5 3.75
0.272615 0.5 0.625
0.203125 -0.5 1.625
-0.5 -0.5 1.25
0.132812 -0.5 1.21875
-1.55698e-08 0.5 2.125
-0.125 0.25 4
-0.5 -0.5 2.25
0.247898 0.5 3.3729
0.283233 0.5 0.375
-0.13197 0.5 1.03013
0.2639 -0.5 1.8819
0.5 -0.161184 0.569079
-0.5 -0.25 1.125
-0.265625 0.5 2.625
0.5 0.265625 0.875
-0.169643 -0.5 0.580357
-0.5 -0.208333 3.45833
0.122701 -0.5 2.23223
0.5 -2.75657e-07 2.375
-0.5 0.25 2.375
-0.5 0.5 1.25
0.5 0.265625 2.375
-0.171875 0.5 1.75
0.5 0.203125 1.875
-0.5 0.197917 2.02083
0.5 -0.265625 0.875
0.5 -0.203125 3.375
-0.253003 -0.5 0.82451
0.5 0.0546871 3.37695
-0.5 -0.25 3.20833
0.25 -0.125 4
-0.5 -0.5 2.75
-0.5 0.5 3.25
0.278952 0.5 2.375
-0.5 0.178571 0.982143
0.0219467 -0.5 3.38514
-0.025 0.5 0.370833
-0.5 0.5 0.75
-0.199467 -0.5 3.62233
0.11861 0.5 1.13193
0.282813 0.5 1.625
-0.228066 -0.5 3.27524
-0.5 0.5 1.75
-0.5 0.25 2.875
0.132812 -0.5 0.642578
0.5 -0.203125 2.875
0.5 0.265625 3.125
0.5 -0.272616 3.625
-0.0242419 0.5 2.43268
-0.5 -0.5 1.75
0.5 0.282812 2.625
0.5 0.255657 0.608028
-0.5 -0.0729167 1.98698
0.5 0.282812 2.125
0.5 0.282812 1.125
-0.5 0.25 3.375
0.5 -0.203125 1.875
-0.5 0.28125 3.125
0.5 -0.203125 1.375
-0.5 0.25 1.375
0.5 -0.00409399 2.6646
-0.125 0.5 3.75
0.208333 0.208333 0
-0.5 0.141071 0.608929
-0.170626 -0.5 2.40803
-0.231486 0.5 2.26156
-0.5 -0.25 2.375
-0.235938 0.5 1.49375
0.5 -0.132813 1.1123
-0.5 -0.234375 1.40625
-0.185242 -0.5 1.1441
-0.104167 -0.0208334 4
0.5 -0.230232 2.51657
-0.5 -0.0989583 2.89323
-0.5 -0.25 0.625
0.5 -0.125 0.25
-0.235938 -0.5 3.00625
0.262545 0.5 2.11268
-0.217904 0.5 0.778076
-0.14601 -0.5 1.54885
-0.5 0.03125 1.5
0.072979 -0.5 2.48188
-0.5 -0.146467 2.62595
0.5 0.0692424 1.30714
-0.5 -0.21875 1.69283
0.5 -0.272615 1.625
-0.23967 0.5 2.00135
0.5 0.2639 1.6181
-0.5 0.28125 1.625
-0.5 -0.281787 2.12607
0.0225406 -0.244194 4
-0.25 -0.5 4
0.5 -0.214606 2.17092
0.5 -0.255409 3.125
0.5 0.283492 2.875
-0.5 0.1875 3.6875
-0.5 -4.50605e-09 0.370123
0.119241 0.5 1.86246
-0.265625 -0.5 1.875
-0.132813 -0.5 2.12031
0.5 0.0321083 2.12636
-0.056742 0.0746123 1.94088
-0.152372 0.183517 0.63973
-0.156667 -0.109746 3.62123
-0.0116226 -0.012648 2.71527
-0.310365 -0.5 0.439635
0.28125 0.5 3.78125
-0.111979 0.0989583 1.36458
0.5 -0.315904 0.687046
-0.5 0.291433 0.458567
-0.0895567 -0.26797 2.57931
-0.0173611 0.267361 0
-0.0366478 -0.32058 3.55238
-0.0512085 0.071828 3.16766
0.0365362 -0.5 2.88137
0.293161 -0.5 2.39175
-0.3125 0.5 3.8125
0.136308 0.243614 0.72177
-0.249009 -0.186233 0.4375
-0.220119 0.242453 0.919506
-0.11316 0.0454571 2.33431
-0.150447 -0.179763 0.969746
0.171305 0.0756204 1.09834
0.28125 -0.5 3.78125
-0.5 -0.318545 2.875
0.0783044 -0.054598 3.77917
-0.24172 -0.267934 0.692055
-0.5 0.189732 1.18304
0.283672 0.238779 1.28965
0.229167 -0.0208333 0
-0.2874 -0.0103339 2.73961
-0.138381 -0.141053 1.64828
-0.0385088 -0.5 3.77883
0.311664 0.5 3.55999
-0.123794 0.126206 0.298644
0.200857 0.207007 3.01608
0.290308 -0.5 0.504077
0.156352 -0.259467 2.74966
0.124868 0.252637 2.73702
-0.13246 0.203006 2.90024
-0.0963437 0.294033 2.58982
-0.288347 -0.5 1.35837
-0.0767671 -0.226901 3.25669
0.178388 -0.10124 2.44267
0.0859375 0.5 3.82031
-0.304398 -0.0543983 4
0.191908 0.195045 1.73745
-0.297843 -0.265555 2.72764
-0.239766 0.250948 3.13459
0.5 -0.073808 3.76706
-0.103533 0.0623625 1.09192
0.5 0.28125 0.21875
0.185427 -0.0680583 1.41081
0.5 0.294883 3.375
0.203328 0.207249 2.44109
0 -0.25 0
0.241905 -0.243138 1.75146
0.159936 -0.239251 1.0317
0.239734 -0.240603 3.25237
-0.231771 0.242187 3.74219
-0.152863 -0.213724 1.29162
-0.247527 0.0807616 3.40098
0.236142 -0.260381 3.53176
0.00933237 -0.5 1.67506
0.0365365 0.5 1.61863
-0.00705623 -0.209603 1.89934
-0.275982 -0.0998243 2.48826
0.28125 -0.5 0.21875
0.121529 0.264525 3.28111
-0.5 0.305334 1.83676
0.0429542 4.25219e-05 0.84917
-0.209109 0.166662 1.67838
-0.5 -0.0234375 3.77344
0.0691708 -0.0231051 3.43303
0.191516 0.183902 2.11813
0.5 0.0485762 2.89435
0.0169584 0.284542 1.02284
-0.5 0.0739094 3.03739
-0.252334 0.5 1.2466
-0.259191 -0.293444 3.42577
0.5 0.125 3.83333
-0.25 0 0
0.5 0.0859375 0.179688
-0.273027 -0.0272052 1.83911
-0.237808 -0.261989 2.25004
0.0470249 -0.0559873 0.520124
0.283903 -0.5 1.40181
0.108861 -0.275714 3.01677
0.131461 0.5 0.199478
0.244575 -0.251653 0.61087
0.0972809 0.24471 0.231797
-0.206732 0.0126037 0.816868
0.129273 0.227417 3.72742
0.231564 0.155438 0.467444
-0.306774 -0.304626 1.55379
0.247125 0.00249453 0.68196
-0.292545 0.5 2.85675
0.238254 0.0187262 2.82151
-0.225386 0.232217 2.13113
0.00564942 0.283906 2.28024
-0.5 -0.298134 1.90249
-0.286281 0.156118 2.48727
0.20971 -0.019199 1.9217
-0.0567419 0.5 1.94088
-0.22046 -0.153359 2.99923
0.00371252 -0.242683 0.295307
0.250298 -0.143743 0.359738
0.0556146 -0.5 1.43635
-0.2905 -0.207086 2.01188
0.0129166 -0.25391 0.77175
-0.092604 -0.0960263 2.12493
0.264024 0.27193 0.96744
0.306661 0.128942 1.51907
-0.0310139 0.287306 1.80892
0.0280339 0.0544745 1.58458
-0.0800144 0.302551 1.50978
-0.278901 0.5 3.5746
0.0202737 -0.284621 2.34161
0.316818 -0.5 2.125
0.269483 -0.273223 1.26874
0.259544 -0.085188 2.18219
0.261056 0.163421 3.49505
0.306925 -0.271659 2.02053
0.00170045 0.268449 0.461813
0.0671348 -0.27375 1.56243
0.286443 -0.0397398 3.63997
-0.248563 0.245688 1.20174
0.261472 0.0389964 3.25962
0.127482 -0.301134 3.77877
0.0136148 0.212905 3.50346
-0.5 -0.0148809 1.04663
0.31493 0.5 1.91653
0.0770305 -0.0103257 0.237941
0.311011 -0.127705 3.02124
0.0371114 -0.0410054 2.96065

CELLS 1279 5112
OFFSETS vtktypeint64
[...]
POINT_DATA 356
SCALARS scalars float 1
LOOKUP_TABLE default
2.98023e-08 2.98023e-08 0 0 4.21468e-08 0 0 0 2.98023e-08 0 0 0 0 0 4.05549e-10 2.98134e-08 0 0 0 0 0 3.332e-08 0 0 0 0 0 0 0 0 0 0 2.98023e-08 0 0 0 0 0 0 0 0 0 0 0 0 0 0 0 0 0 0 0 0 0 0 0 0 0 0 0 0 0 0 0 0 1.39148e-08 0 7.45058e-08 1.5427e-08 1.05367e-08 2.98023e-08 0 0 1.43856e-08 1.27945e-08 1.7876e-08 7.18399e-09 0 0 1.84087e-08 0 0 0 0 0 3.71696e-09 0 5.61528e-09 0 0 1.87213e-08 0 0 0 0 0 0 0 0 0 0 0 0 0 0 0 0 2.70608e-08 0 0 0 0 2.98023e-08 0 0 0 0 0 0 0 0 0 0 0 0 1.55698e-08 0 0 0 0 0 0 0 0 0 0 0 0 0 5.59351e-09 0 0 0 0 0 0 0 0 0 0 0 0 0 0 0 0 3.53903e-08 1.67638e-08 0 0 0 0 0 0 0 0 0 0 0 3.72529e-08 0 0 0 0 0 0 0 0 0 0 0 1.62981e-08 0 0 0 0 0 0 0 0 0 0 0 0 0 0 0 0 0 0 0 9.31323e-09 8.19564e-08 0 0 0 0 0 0 0 0 0 0 0 0 0 0 4.50605e-09 0 0 0 0 4.09782e-08 0 0 1.04125e-08 0 0 0 0 0 0 0 3.72529e-09 0 0 0 0 0 0 0 0 0 0 0 0 0 0 0 0 1.49012e-08 2.79397e-09 0 1.49012e-08 0 0 0 0 0 0 0 0 0 0 0 0 0 0 0 0 0 0 0 0 0 0 0 0 0 0 0 0 0 0 2.23517e-08 1.11759e-08 4.05125e-08 0 0 0 0 1.73313e-08 0 0 0 0 0 4.65661e-08 0 0 0 0 0 0 3.72529e-09 0 0 0 0 0 0 0 1.95578e-08 0 0 0 4.65661e-10 0 1.30385e-08 0 3.07336e-08 0 0 2.23517e-08 7.45058e-09 0 7.68341e-09 0 0 0 0 0 0 0 9.31323e-09 2.98023e-08 0 0 4.84288e-08 0 0 0 0 0 5.23869e-09 0 0 0 0 0 1.30385e-08 4.65661e-09 0 1.39698e-08 0 0 
