# vtk DataFile Version 5.1
vtk output
ASCII

DATASET UNSTRUCTURED_GRID
POINTS 6967 float
-0.394271 -0.505542 0
-0.394271 0.494463 0
0.605734 0.494462 0
0.605733 -0.505542 0
-0.512854 -0.520371 4
0.48715 -0.520371 4
0.48715 0.479634 4
-0.512854 0.479634 4
-0.394271 -0.00553941 0
0.105732 0.494463 0
0.605734 -0.00553979 0
0.105731 -0.505542 0
-0.0128518 -0.520371 4
0.48715 -0.0203687 4
-0.0128519 0.479634 4
-0.512854 -0.0203685 4
0.506693 0.501414 2.02936
0.520293 -0.458217 2.02678
-0.436235 -0.466401 1.96871
-0.441233 0.488431 1.97338
0.237149 -0.520371 4
-0.512854 -0.27037 4
-0.489556 0.466048 3.00278
-0.384672 -0.48492 0.994105
-0.392858 0.484671 0.971889
0.567463 0.479415 1.00641
0.0705886 -0.663943 1.51043
-0.575348 0.0103999 0.485729
-0.612659 0.0159995 1.4652
0.110367 0.664153 0.486644
0.775577 -0.00875402 0.511055
-0.517789 0.272729 0.253559
-0.262853 -0.520371 4
-0.512854 0.229633 4
0.56861 -0.468256 1.02553
0.469009 0.483633 3.02573
0.481123 -0.479307 2.99671
-0.482906 -0.480423 2.97633
-0.688624 -0.0273504 3.49717
0.00137345 0.68669 2.5162
0.0647073 0.692293 1.49124
-0.178825 -0.617002 1.25326
0.31612 -0.606529 1.76891
-0.52563 -0.272865 0.740046
-0.665036 0.00318959 2.47221
0.0125528 -0.668612 2.48114
0.664468 -0.00570905 3.50397
0.691194 0.0172608 2.53328
-0.0279278 0.662343 3.51389
0.738724 0.018876 1.53627
0.0997578 -0.67968 0.508585
-0.00350324 -0.693505 3.4886
-0.265329 0.625169 2.75899
-0.63095 -0.298433 3.73568
-0.638461 0.241097 3.24669
0.270844 0.643759 2.27214
0.670063 0.282747 1.78533
0.239524 0.620795 3.27095
-0.286936 0.608936 3.73909
0.653908 -0.237739 2.28095
0.62479 0.267339 2.78293
0.70121 -0.245203 1.28223
-0.169587 -0.625115 0.265716
0.356616 -0.625535 0.766834
0.467959 0.402061 0.287583
0.470199 0.279027 1.38726
0.105731 -0.0055396 0
-0.461444 0.154516 2.74504
0.498764 -0.27345 0.639989
-0.137852 -0.145369 4
-0.394271 -0.255541 0
-0.14427 0.244462 0
0.355733 0.244461 0
0.179121 -0.455461 3.2461
0.460588 0.0939696 3.13862
-0.381492 0.0894811 0.855388
-0.423614 -0.177628 2.22278
0.401668 0.359852 3.18804
-0.507068 0.0135484 3.09243
0.00489254 -0.473158 0.881551
-0.14427 0.494463 0
-0.620568 -0.257977 2.72063
-0.166253 0.62194 0.734376
0.355732 -0.255541 0
0.237149 0.229632 4
0.461807 -0.243953 1.64922
-0.265145 0.330578 0.391135
-0.108972 0.4591 1.23708
-0.381328 -0.353283 3.59723
-0.431866 -0.181221 0.900838
-0.0459043 -0.455142 1.86997
0.512673 -0.36413 0.295909
0.51954 0.196772 2.9413
0.615073 -0.162642 0.566441
-0.14427 -0.505542 0
-0.31763 -0.417328 3.39904
0.529633 0.041465 3.78643
0.48715 -0.27037 4
-0.489543 0.134025 3.65228
0.524797 -0.295408 0.85795
0.176199 0.537763 0.211928
-0.231637 -0.377982 0.399537
0.644939 -0.0739372 0.221123
-0.262853 0.479634 4
-0.462346 -0.260348 3.08754
-0.367915 -0.32301 2.5775
-0.262807 0.474468 2.58864
-0.109664 0.463793 3.1359
-0.439981 0.282815 2.83887
-0.606133 0.263881 2.21828
0.138233 0.456975 3.65901
0.0580638 0.499358 0.888753
-0.394271 0.244462 0
0.376365 -0.344611 2.71904
0.215207 0.497168 3.43304
-0.368081 0.262793 1.71487
0.620883 0.0506331 1.36262
0.612347 0.25431 3.73644
0.617282 -0.264791 3.25063
0.562336 -0.0167844 2.69132
0.259353 -0.642223 3.73024
0.34028 -0.501893 0.594759
-0.032656 -0.501034 1.6647
-0.550153 0.272381 1.21545
-0.330553 -0.284653 1.23422
-0.0728603 0.484583 2.12283
0.112149 -0.27037 4
-0.228614 -0.614512 2.2242
-0.549818 -0.0710207 3.32688
0.122148 -0.562599 0.341464
0.561069 0.164962 1.07073
0.225081 -0.503517 1.93551
-0.335931 -0.273334 0.532629
-0.266922 0.430054 1.14351
-0.544105 0.0404916 2.64633
0.269728 -0.519173 0.930423
-0.170622 0.425738 0.538125
0.469498 -0.230297 3.49523
0.316117 -0.383989 2.26473
0.410203 0.283847 2.39999
-0.524398 -0.0463709 2.30643
0.337623 0.630316 1.24839
0.25309 0.507219 2.43686
0.0671615 0.528958 1.78408
0.550865 0.137243 1.94106
-0.449298 0.197994 1.9612
-0.25915 -0.424681 0.832628
-0.11212 0.506021 3.34749
-0.297967 0.377143 0.76353
-0.334575 0.352174 3.39683
0.39328 -0.379325 3.24575
-0.262853 0.104632 4
0.262136 -0.622476 2.73979
-0.258193 -0.64035 3.23588
-0.0185617 0.569468 2.34305
0.293075 0.479616 0.941325
0.366849 0.284391 3.40032
0.386221 -0.397206 0.379248
0.719653 0.253138 0.758725
0.421748 0.273162 3.58796
0.581665 -0.0138714 1.1282
0.563025 0.258311 1.60745
0.523265 -0.0184284 3.24148
-0.206891 0.641114 1.73496
-0.346331 -0.422166 2.81442
-0.379769 0.133402 0.656682
0.294018 0.436261 2.85802
-0.376972 0.402608 3.17286
-0.267553 0.473044 3.58561
-0.316621 0.370263 2.42886
-0.57245 -0.241457 1.71468
0.0224739 0.564682 2.68207
0.0381786 -0.544841 0.656973
-0.446585 -0.0542935 1.97182
0.431932 0.397809 2.1927
0.459167 -0.403612 1.19082
0.0467211 -0.55366 3.32466
0.480215 -0.277731 1.86421
-0.191699 -0.532832 3.06987
0.168209 -0.504242 1.35083
0.0210581 0.552977 1.32304
0.24862 0.422941 2.68241
-0.075724 -0.517742 3.76957
-0.102603 -0.213874 0
0.500617 0.305391 0.583648
0.166369 -0.477089 2.36771
-0.396336 0.352949 2.28513
-0.237223 -0.473158 2.39353
0.232929 0.52566 1.53687
0.0368447 -0.495699 1.0946
-0.4133 0.25981 1.41883
-0.432055 0.086757 1.08439
0.0913153 0.000464656 4
0.512915 0.198559 2.50433
0.0212052 -0.496893 2.9045
0.150145 0.537325 0.655333
-0.396565 -0.0680449 0.222774
0.480213 -0.239786 2.96802
0.204596 0.537699 2.08434
0.620922 0.0462799 0.830083
-0.366657 -0.252883 1.49779
-0.251209 0.381861 1.47467
0.396964 -0.283457 2.51078
-0.137285 -0.482411 2.63736
0.363527 -0.380581 1.34248
-0.476583 0.0413085 1.70165
0.308107 -0.480523 1.6016
-0.217268 0.491375 2.03059
0.603706 -0.0217741 1.68927
-0.17603 0.522225 1.56781
-0.380871 -0.368976 2.14141
-0.0353927 0.223826 4
0.237149 0.479634 4
0.551585 -0.0642082 2.16134
0.149697 0.51976 3.10008
-0.202444 0.521292 2.92748
0.327366 -0.409409 3.64932
0.514901 0.248557 0.372657
0.264761 0.464486 1.84835
-0.313076 -0.400166 1.81022
-0.0078861 -0.481079 2.08129
0.491102 0.148764 2.16053
-0.00972187 0.0947094 1.93907
0.330878 0.0251139 0.643084
0.172708 -0.011068 3.62641
0.0066774 -0.0141136 2.71662
0.05357 0.56173 0.393459
-0.438199 -0.383182 3.74158
0.0943319 0.15699 1.36226
-0.406883 -0.279882 0.635188
0.6592 0.0756434 0.426278
0.156926 -0.22146 2.57874
0.123092 -0.272902 0
0.211022 0.197262 3.55941
-0.063828 -0.0758035 3.16589
0.475187 -0.0502741 2.904
0.536636 -0.201125 2.45842
0.158325 -0.571567 3.83717
0.253522 -0.224366 0.728439
0.180012 0.288019 0.432863
0.354364 0.186751 0.923131
-0.101507 -0.00560482 2.32813
-0.0783971 0.158938 0.962028
0.184568 -0.147654 1.10626
-0.133754 0.53284 3.82019
0.22746 -0.532244 2.90782
-0.0682734 0.0559593 3.78719
-0.0227354 0.330589 0.683728
0.135668 0.524426 1.13733
0.41122 -0.135256 1.31206
-0.123436 0.0152939 0
-0.0973142 -0.255854 2.72984
-0.131402 -0.029309 1.63707
0.187248 0.428599 3.77576
-0.557296 -0.190634 3.51279
0.265781 -0.067015 0.295005
-0.217112 0.185831 3.01761
-0.44463 0.130024 0.536229
0.294187 0.0513867 2.76586
-0.176029 0.213244 2.73516
-0.219945 -0.102819 2.89167
-0.280703 0.0993592 2.58176
-0.490528 0.00879315 1.28772
0.221164 0.00657972 3.25945
0.208892 0.0479128 2.45293
-0.237218 -0.467354 3.80693
0.291548 0.0340298 4
0.29931 0.120833 1.75087
0.118589 -0.374593 2.72157
-0.197335 -0.293757 3.1265
-0.446481 0.219088 3.75575
0.132133 0.116447 1.0919
-0.260349 -0.432354 0.260104
0.126512 -0.170979 1.41664
-0.530632 0.207595 3.419
0.0317977 0.296467 2.44745
0.105731 0.244462 0
0.182691 -0.295214 1.76275
-0.13771 -0.169588 1.02774
0.111444 0.302136 3.26233
0.106316 -0.325578 3.74287
-0.179257 0.05609 1.27781
0.0670884 -0.253962 3.39685
-0.0212552 0.329616 3.54058
-0.170715 -0.41186 1.6642
0.357061 0.393364 1.61752
0.0053366 -0.181295 1.89633
-0.112542 -0.249423 2.47888
-0.323213 0.363274 0.256181
-0.295638 -0.0152214 3.27653
-0.33142 0.439972 1.77236
0.0850375 -0.0417994 0.849215
-0.0442724 0.259984 1.67123
0.454509 -0.165738 3.78016
-0.0377042 0.051583 3.43667
0.177227 0.230762 2.12907
0.0206697 0.483892 2.91975
0.361976 -0.00139355 1.03182
-0.0494807 -0.491987 3.00917
0.421798 0.429238 1.29277
0.373288 -0.0330424 3.42708
-0.517441 -0.0201827 3.85252
0.355732 -0.00553969 0
-0.341323 -0.225093 0.189712
-0.216012 0.0558465 1.8232
-0.0928018 -0.313969 2.23478
0.029241 -0.000829582 0.514485
-0.142423 -0.505749 1.44351
0.255286 0.115894 3.03024
0.123942 -0.509981 0.179341
-0.240666 -0.0604302 0.602155
0.0977822 -0.263601 0.22587
0.164262 0.187819 0.815885
-0.219486 -0.17329 3.7306
0.0365819 -0.267348 0.469396
-0.364031 -0.0158106 1.53063
-0.0127621 -0.212899 0.680226
-0.532583 -0.187114 2.87641
0.0426483 0.226586 2.83089
-0.236756 0.190988 2.11979
-0.0940791 0.262765 2.27911
-0.477481 -0.21348 1.91588
-0.298127 -0.0716416 2.46803
0.239335 -0.0240363 1.9344
0.0230351 0.498635 1.95616
0.146877 -0.221436 2.99891
-0.00118754 0.203706 0.285355
-0.177604 -0.0124687 0.35035
-0.270397 -0.338384 1.43628
-0.242806 -0.19621 1.99854
-0.13902 0.0717282 0.764613
-0.0399975 -0.0933638 2.12044
0.344117 -0.268794 0.980685
0.370702 -0.0901954 1.54106
0.0971776 0.292223 1.81112
0.113637 0.0420827 1.5872
0.207608 0.282326 1.51333
-0.0765322 -0.571549 3.60789
0.175839 -0.209956 2.34449
0.440426 -0.384324 2.18926
-0.0573444 -0.34362 1.26893
0.290463 0.00756418 2.19644
-0.30729 0.0448464 3.49849
0.347679 -0.239936 2.0371
0.272605 -0.202968 0.461208
-0.0549502 -0.231305 1.56195
-0.227906 0.158021 3.64463
0.23398 0.316985 1.19997
-0.150269 0.203231 3.26543
-0.035836 0.297548 3.78775
-0.16647 -0.155514 3.50487
0.0324606 0.487318 1.03812
0.417439 0.452848 1.89748
0.0319303 -0.0248598 0.229402
0.107546 0.303079 3.02935
0.0350608 0.0302998 2.96417
0.0146767 0.045639 3.73365
0.0961627 0.0231717 3.67946
0.134706 -0.111512 3.66496
0.112409 -0.218275 3.70385
0.051582 -0.196066 3.75888
-0.00673029 -0.0687782 3.77298
-0.0804933 -0.0228338 3.69446
-0.114268 -0.0940095 3.59993
0.0636839 -0.0725231 3.58647
-0.049455 -0.120471 3.54585
0.00167861 -0.288564 3.66491
-0.0902626 -0.230998 3.58477
-0.00592278 -0.0429059 3.64085
0.0238517 -0.177641 3.62588
-0.035709 -0.153329 3.67822
[...]
POINT_DATA 6967
SCALARS scalars float 1
LOOKUP_TABLE default
1.34567 1.33741 1.48715 1.49458 1.43772 1.41973 1.39074 1.4091 0.894288 1.00007 1.10575 1.01109 1.02045 0.98736 0.979718 1.01306 0.0301422 0.0536195 0.0785722 0.0655459 1.13069 1.13871 0.990142 0.88482 0.990881 1.06768 0.459761 1.19041 0.5293 1.31453 1.37334 1.2779 1.142 1.12068 0.971019 0.984458 0.981347 0.980858 1.30036 0.532677 0.596613 0.688842 0.21335 1.05053 0.524242 0.539904 1.26504 0.552469 1.27669 0.538317 1.24576 1.29271 0.775549 1.38447 1.16753 0.271421 0.278152 1.15086 1.35983 0.305658 0.778118 0.772562 1.30938 1.13476 1.16771 0.519679 0.105876 0.551771 0.920443 0.377082 1.02727 0.632409 0.781923 0.81772 0.751749 0.702431 0.195263 0.872828 0.791718 0.684874 1.06977 0.768068 1.17063 0.788976 0.683638 0.24811 0.917787 0.603194 0.992588 0.767321 0.0643797 1.15347 0.738869 1.08115 1.08008 0.932562 1.07071 1.11591 0.98996 0.858159 1.12252 0.888192 1.19023 1.10576 0.807001 0.469485 0.499163 0.766103 0.669044 0.260811 0.95767 0.837525 1.02187 0.570677 1.00114 0.242393 0.572968 1.34405 1.14177 0.561828 1.37174 1.00463 0.239103 0.774778 0.511196 0.0745053 0.57186 0.295683 0.982107 1.07526 0.770845 0.0662865 0.844208 0.719125 0.537731 0.819759 0.926701 0.970448 0.22787 0.29876 0.305176 0.847701 0.35094 0.243184 0.106262 0.0782736 0.77679 0.937196 0.88041 0.886233 0.903368 0.561915 0.771981 1.16579 0.307182 0.849271 0.857005 0.986991 1.24442 0.992406 0.691735 0.37046 0.893056 0.325657 0.692164 0.814946 0.671961 0.888896 1.07084 0.319894 0.270815 0.557439 0.925457 0.0585632 0.149803 0.69078 0.973297 0.0779352 0.872249 0.44871 0.604976 0.495851 1.01912 0.524347 1.01433 0.340171 0.222161 0.345245 0.471544 0.588653 0.50189 0.639348 0.196639 0.42916 0.655846 1.02151 0.898785 0.762918 0.0747138 0.95509 0.3352 0.430658 0.390759 0.494521 0.471396 0.26126 0.283895 0.0378331 0.312138 0.407794 0.148421 0.471593 1.09407 0.159287 0.851011 0.743458 1.02093 1.0449 0.150455 0.128118 0.132237 0.121885 0.0511671 0.50856 0.343878 0.0184075 1.12332 1.13982 0.21433 0.909078 1.17956 0.250833 0.558222 0.574064 0.14818 0.628634 0.391218 1.1707 0.482482 0.639528 0.577189 0.0527386 0.346365 0.223808 1.11378 0.758908 0.183772 0.63738 0.719849 0.395819 0.354449 0.310657 0.112522 0.955652 1.11099 0.434875 0.418508 0.968554 0.340428 0.30347 0.318207 0.268237 0.552032 0.378528 0.152585 1.01999 0.602471 0.131236 0.430514 0.546415 0.990829 0.241792 1.04359 0.118733 1.03526 0.19345 0.505639 0.0796581 0.305715 0.557784 0.660803 0.271454 0.459391 0.643761 0.200758 0.337799 0.0310476 0.221767 1.05452 0.502302 0.225154 0.0593444 0.189555 0.965081 0.130437 0.0501983 0.647999 0.448193 0.723881 0.679406 0.683989 1.02793 0.605758 0.897031 0.101986 0.154795 0.0582275 0.4284 0.418304 1.01021 0.521633 0.508346 0.41029 0.531234 0.465585 0.295346 0.337548 0.7281 0.285579 0.0442466 0.101951 0.0886157 0.228878 0.0325945 0.0812381 0.373592 0.446527 0.447684 0.363873 0.0507051 0.35941 0.0528652 0.546785 0.22936 0.128305 0.0865348 0.288355 1.091 0.172579 0.181077 0.334323 0.0988025 0.580594 0.0542383 0.543712 0.129254 0.551077 0.487785 0.443326 0.620623 0.410079 0.731977 0.11443 0.0481474 0.476485 0.0714215 0.119739 0.208811 0.338089 0.468626 0.384133 0.114747 0.14893 0.264138 0.178124 0.225936 0.54262 0.454204 0.0614488 0.328418 0.287053 0.202225 0.147211 0.140586 0.090792 0.0636935 0.0781032 0.115998 0.11018 0.0766035 0.103555 0.0813673 0.055816 0.0570926 0.109013 0.0707605 0.0810649 0.103981 0.125695 0.293247 0.372911 0.363065 0.303815 0.165348 0.0397471 0.0339069 0.33021 0.187867 0.312298 0.175846 0.156331 0.256135 0.168492 0.230231 0.956476 0.894492 0.754362 0.68596 0.75499 0.884471 0.786987 0.574796 0.690594 0.546538 0.517484 0.435912 0.733984 0.596089 0.648782 0.815159 0.816932 0.685192 0.696893 0.824829 0.947032 0.948212 0.846779 0.734712 0.570651 0.586522 0.821679 0.706403 0.7019 0.695282 0.828429 0.813499 0.743969 0.589683 0.469251 0.462637 0.622964 0.777954 0.717354 0.516208 0.386962 0.331149 0.405847 0.362014 0.533439 0.39106 0.563228 0.602469 0.743204 0.715105 0.607347 0.532423 0.539093 0.642589 0.647474 0.521331 0.582589 0.483764 0.425115 0.398334 0.615841 0.499035 0.518387 0.624551 0.877128 1.00577 1.0968 1.03371 0.916044 0.852166 0.754468 0.792008 1.06931 0.975199 0.915137 0.887282 0.892777 0.990256 0.833656 0.956367 1.05284 0.986063 0.809075 0.706732 0.783053 0.948953 0.953042 0.78833 0.813694 0.715061 0.639313 0.638274 0.878594 0.712712 0.787109 0.876849 0.625791 0.498752 0.367891 0.44015 0.582403 0.651934 0.627321 0.514219 0.368421 0.385263 0.502783 0.455988 0.498947 0.406661 0.542902 0.514981 0.0480134 0.128398 0.146391 0.0987924 0.0588571 0.0542434 0.0105438 0.0511372 0.164394 0.12037 0.0511903 0.059224 0.0861137 0.101254 0.0298957 0.0785134 0.174322 0.160498 0.0810742 0.127803 0.123235 0.0736982 0.114479 0.0790899 0.119764 1.10211 0.86703 0.769766 0.916894 1.14176 1.23222 1.22586 1.13389 0.77573 0.918865 1.06701 1.06303 1.00194 0.919899 1.13935 0.999948 1.02158 0.907541 0.782716 0.799983 0.972558 1.06974 1.00332 0.825163 0.79702 0.715564 0.858436 0.738926 0.899586 0.906281 0.745231 0.649692 0.747758 0.879716 0.952455 0.908671 0.891326 0.892222 0.685513 0.778586 0.975899 0.934637 0.756887 0.825752 0.916169 0.798033 1.25919 1.02395 0.90686 1.03104 1.25215 1.36283 1.38074 1.2789 0.919883 1.05396 1.12225 1.13523 1.14988 1.0169 1.24482 1.1377 0.402613 0.475119 0.458925 0.365218 0.304898 0.328367 0.339282 0.345839 0.468518 0.403063 0.283736 0.320204 0.399666 0.382486 0.317971 0.389176 0.933479 1.05325 1.10756 1.03331 0.873658 0.826956 0.715838 0.582223 0.958144 0.706206 0.788923 0.607368 0.823279 0.868593 0.713967 0.95787 0.182571 0.24245 0.193934 0.110693 0.0759391 0.100681 0.112386 0.104333 0.211737 0.144108 0.0618653 0.0757288 0.163411 0.126231 0.0856437 0.146644 0.762275 0.857811 0.865961 0.773007 0.64779 0.648105 0.637942 0.588263 0.837039 0.695808 0.646449 0.596078 0.727368 0.736371 0.61561 0.745436 1.40091 1.45287 1.36299 1.25866 1.21447 1.26592 1.26063 1.19467 1.35757 1.23486 1.10856 1.09253 1.32157 1.2268 1.18427 1.32834 0.657092 0.677744 0.546836 0.419734 0.44192 0.541976 0.491512 0.364322 0.540218 0.403135 0.256791 0.239824 0.51017 0.384768 0.375836 0.542338 0.348561 0.29132 0.268208 0.347617 0.407374 0.395199 0.448615 0.500197 0.321666 0.431181 0.453934 0.489718 0.389736 0.376227 0.44251 0.335749 0.638475 0.537856 0.446099 0.4725 0.610937 0.688447 0.736802 0.710497 0.5403 0.615003 0.567898 0.615664 0.625087 0.529153 0.651564 0.549572 0.190846 0.343617 0.331708 0.15142 0.016559 0.0242526 0.152406 0.27933 0.455227 0.421609 0.151013 0.286661 0.29606 0.292812 0.148769 0.170582 0.652491 0.679616 0.640479 0.531822 0.502225 0.587624 0.538223 0.41474 0.568264 0.417344 0.377884 0.338365 0.528325 0.473385 0.458392 0.59176 0.321219 0.303215 0.363126 0.363153 0.249125 0.139008 0.29654 0.178699 0.239728 0.118138 0.259608 0.209502 0.234197 0.325794 0.18421 0.106436 0.110741 0.20992 0.246245 0.22924 0.29216 0.352886 0.152878 0.291121 0.332921 0.376507 0.228271 0.239836 0.293222 0.163212 0.0526727 0.0382792 0.06681 0.117719 0.0752311 0.0196603 0.0400175 0.104567 0.0769571 0.147474 0.132543 0.151381 0.0537388 0.104586 0.063208 0.0335675 0.228684 0.151171 0.0640605 0.0564868 0.105798 0.194124 0.226454 0.155794 0.0960071 0.104432 0.054932 0.0710046 0.16338 0.0728196 0.130036 0.128971 0.668925 0.764188 0.714445 0.611315 0.516619 0.516253 0.544788 0.572325 0.750194 0.675998 0.587219 0.616296 0.64986 0.642403 0.544426 0.617355 1.4355 1.46932 1.22508 1.29954 1.31779 1.25347 1.35852 1.21935 1.3433 0.709244 0.755474 0.664517 0.498739 0.462468 0.578379 0.581782 0.534108 0.716996 0.624651 0.38664 0.464091 0.637881 0.558154 0.48425 0.608668 0.701588 0.630131 0.565561 0.598025 0.696338 0.732213 0.639276 0.523774 0.496508 0.451652 0.594002 0.51425 0.563762 0.527274 0.613101 0.648342 1.3051 1.2027 1.19131 1.27792 1.3893 1.40521 1.32822 1.24461 1.10033 1.11969 1.30267 1.23487 1.20917 1.19754 1.3201 1.29664 0.441341 0.463763 0.433858 0.355639 0.307951 0.369612 0.353851 0.307248 0.422169 0.353167 0.295313 0.303359 0.377686 0.36457 0.313759 0.393675 0.916891 1.13927 1.20689 1.08769 0.888025 0.782579 0.809331 0.947749 1.25286 1.16803 1.03346 1.06753 1.03929 1.13239 0.922959 1.00132 0.343018 0.294043 0.348104 0.476488 0.55487 0.474698 0.385717 0.367733 0.256607 0.285725 0.517956 0.420125 0.320412 0.374659 0.453045 0.410348 1.04589 1.09004 1.01706 0.911869 0.851535 0.91413 0.941554 0.913494 1.05976 0.989772 0.860131 0.895655 1.00135 0.955112 0.885872 0.96448 0.306118 0.369763 0.332334 0.251899 0.208795 0.227007 0.188368 0.140586 0.296347 0.184427 0.156425 0.127395 0.241189 0.219066 0.17166 0.281163 0.272455 0.4391 0.454794 0.393386 0.308186 0.175296 0.0545791 0.0089978 0.383032 0.164694 0.29403 0.142331 0.218493 0.2559 0.152526 0.303515 0.342847 0.403074 0.351309 0.234664 0.199919 0.262717 0.281831 0.259228 0.436825 0.367087 0.182201 0.226171 0.338025 0.29344 0.225922 0.282516 0.162717 0.14357 0.132856 0.120217 0.122137 0.158095 0.214882 0.247477 0.178899 0.233844 0.146651 0.214071 0.193334 0.173042 0.183782 0.141183 0.960053 0.932108 0.818332 0.770821 0.819959 0.892909 0.904149 0.828806 0.862757 0.814489 0.733473 0.735275 0.88371 0.780679 0.811016 0.859594 0.184635 0.106536 0.0894938 0.112809 0.176063 0.222537 0.194998 0.134395 0.0640559 0.0684744 0.111232 0.0962642 0.115577 0.0816942 0.153473 0.1462 0.961669 0.96658 1.01909 1.02548 1.03079 1.02068 0.838228 0.702478 0.903523 0.774657 0.881191 0.742678 0.836976 0.884745 0.856412 0.987103 0.213234 0.357004 0.510259 0.537012 0.415645 0.259529 0.236414 0.342489 0.437887 0.415457 0.52571 0.479809 0.315025 0.471451 0.372539 0.37335 0.465788 0.380973 0.341809 0.355959 0.438448 0.504327 0.581332 0.620345 0.457955 0.572876 0.465024 0.56965 0.503559 0.458233 0.52074 0.407757 0.286513 0.236399 0.293235 0.391864 0.44732 0.397632 0.311032 0.270883 0.219503 0.22839 0.395206 0.30362 0.257625 0.306428 0.354159 0.340461 0.15 0.157119 0.0684088 0.0227966 0.0362818 0.0798382 0.143197 0.135113 0.139335 0.128694 0.0330593 0.0422589 0.147988 0.052778 0.0669468 0.0799861 1.12622 1.08186 0.965192 0.984545 0.942272 0.990622 1.04272 0.937208 1.03047 0.945716 1.00069 0.940028 0.844733 0.79853 0.838527 0.851711 0.81477 0.951761 0.859595 0.734096 0.739008 0.905677 0.838139 0.788204 0.893886 0.60584 0.45033 0.691786 0.497003 0.597555 0.435241 0.642539 0.642467 0.582289 1.15764 1.07624 0.930403 0.912463 1.03433 1.13194 1.01723 0.793601 0.842878 0.694366 0.817724 0.690972 0.92171 0.799067 0.908038 1.02941 1.02513 1.065 0.927129 0.732134 0.680928 0.836588 0.812364 0.66847 0.92129 0.7414 0.535789 0.552977 0.861875 0.732694 0.669059 0.876318 0.294804 0.323205 0.390045 0.345411 0.194088 0.0754984 0.257774 0.148889 0.264502 0.0705537 0.214908 0.16353 0.196572 0.308704 0.936609 0.80651 0.56795 0.452975 0.58025 0.8239 0.90986 0.751304 0.629226 0.60094 0.417795 0.505952 0.767574 0.521798 0.662053 0.692086 0.227163 0.264625 0.126872 0.0850926 0.206031 0.223426 0.323897 0.298817 0.226365 0.22746 0.244011 0.243618 0.140527 0.148541 0.277798 0.248124 0.221295 0.212477 0.350609 0.280576 0.229044 0.275423 0.307153 1.08512 1.03068 0.931409 0.890885 0.935797 1.02889 0.915529 0.864539 0.805848 0.791554 0.970915 0.858303 0.907327 0.983753 1.22159 1.2696 1.20062 1.101 1.05977 1.10965 1.08658 0.858582 1.04536 0.978366 0.935759 1.15941 0.741333 0.708538 0.571554 0.471753 0.602052 0.555944 0.696088 0.897575 0.828035 0.754899 0.714258 0.750906 0.85935 0.806984 0.615248 0.643622 0.516991 0.712226 0.616666 0.682456 0.792783 0.802896 0.881993 1.04117 1.09063 0.685918 0.60569 0.858501 0.707199 0.959445 0.758123 0.740404 0.897087 0.821339 0.948528 0.657705 0.49095 0.435023 0.53321 0.340356 0.361953 0.507894 0.425155 0.584341 0.11432 0.124347 0.0430123 0.0514526 0.09907 0.0993434 0.122357 0.0445369 0.0601108 1.36206 1.33362 1.17678 1.0672 1.09072 1.22612 1.28694 1.19651 1.23014 1.16715 0.969655 1.01585 1.26257 1.09252 1.11936 1.20482 0.165078 0.11285 0.119593 0.167494 0.210987 0.220492 0.10916 0.0339273 0.0521671 0.0435207 0.125125 0.0519492 0.0661848 0.0809272 0.1206 0.170067 0.446975 0.487865 0.404895 0.228723 0.190234 0.333092 0.467437 0.456685 0.50531 0.462059 0.201257 0.331218 0.455485 0.347713 0.328313 0.325398 0.560787 0.719846 0.741981 0.606103 0.469149 0.441175 0.412226 0.418761 0.742657 0.591573 0.570166 0.58366 0.423202 0.581795 0.336807 0.491685 0.581382 0.54791 0.427562 0.303203 0.312048 0.46318 0.630853 0.62222 0.506339 0.531823 0.473034 0.553856 0.40061 0.437582 0.580632 0.510777 0.619743 0.843165 0.947909 0.803374 0.370639 0.347566 0.840783 0.606451 0.450601 0.587174 0.692972 0.709686 0.102793 0.190919 0.202597 0.14837 0.0926308 0.0692667 0.0492032 0.0855016 0.219225 0.1651 0.133938 0.151245 0.0759932 0.13213 0.0714507 0.0702975 0.0472349 0.0389801 0.0946362 0.105641 0.0962242 0.0630311 0.0483217 0.615678 0.69723 0.664011 0.57311 0.500434 0.509732 0.54688 0.554682 0.699151 0.624971 0.494557 0.511451 0.625674 0.589027 0.512846 0.589797 1.28831 1.1533 1.10941 1.13134 1.25184 1.01671 0.95279 0.839077 1.04242 0.911006 1.06129 0.988337 1.13875 1.20142 0.199146 0.21289 0.176791 0.130095 0.120215 0.147462 0.12799 0.0855048 0.164206 0.107243 0.0892064 0.0751189 0.145326 0.119247 0.106022 0.167498 0.108204 0.156022 0.152703 0.0956769 0.10095 0.160364 0.212193 0.220547 0.20555 0.206481 0.159602 0.219989 0.14683 0.161091 0.433732 0.367535 0.246531 0.196017 0.366608 0.263665 0.259542 0.220715 0.312842 0.195679 0.238159 0.300316 0.927452 0.868366 0.738304 0.58658 0.565484 0.503237 0.833064 0.62437 0.633432 0.69767 0.736407 0.803141 0.175799 0.121007 0.0423284 0.0282388 0.0610554 0.139693 0.239017 0.230236 0.101085 0.145511 0.0648331 0.135985 0.16404 0.0760991 0.135933 0.0814439 0.560036 0.431681 0.361462 0.418714 0.362541 0.289808 0.509023 0.364889 0.307963 0.290993 0.431579 0.402524 0.326649 0.488061 0.0541474 0.0473872 0.0325878 0.0157019 0.0461601 0.0753845 0.0988338 0.099475 0.0902525 0.104504 0.0418459 0.0777579 0.0684234 0.0466506 0.0688591 0.0319671 0.263058 0.406594 0.331667 0.117507 0.078539 0.0850093 0.31869 0.486777 0.59761 0.628224 0.444717 0.352907 0.204943 0.16279 0.0549637 0.111004 0.17928 0.197246 0.139796 0.0549211 0.0712075 0.063666 0.15941 0.116889 0.145216 0.0739982 0.0777935 0.120248 0.0299143 0.0734718 0.713184 0.534997 0.618812 0.485463 0.639418 0.511624 0.643889 0.613498 0.679784 0.991829 1.03861 1.01964 0.964829 0.965711 0.973533 0.844013 0.721083 0.948276 0.782564 0.877111 0.858615 0.833356 0.975891 0.156918 0.124972 0.156774 0.210263 0.0824472 0.0688714 0.106608 0.110034 0.157494 0.334293 0.37662 0.445778 0.467284 0.330536 0.237537 0.280215 0.338531 0.401579 0.123386 0.127511 0.155652 0.159042 0.100088 0.0675106 0.0871191 0.111024 0.14133 1.20668 1.11802 1.00359 1.01938 1.06198 1.03694 1.09371 1.0043 1.13057 1.26434 1.16549 1.13178 1.18629 1.2934 1.33656 1.30534 1.24073 1.07644 1.11063 1.23085 1.20776 1.18629 1.15246 1.27097 1.23103 0.490191 0.611268 0.662047 0.553841 0.370093 0.389514 0.653125 0.555114 0.440722 0.454078 0.491503 0.549827 0.396296 0.516103 0.310097 0.33614 0.324802 0.308476 0.290461 0.279132 0.228816 0.189211 0.283877 0.216184 0.238564 0.188988 0.260497 0.257284 0.229091 0.309603 0.850204 0.855363 0.699097 0.513894 0.547613 0.719914 0.690567 0.512703 0.674766 0.52206 0.52564 0.683745 0.366488 0.289985 0.192895 0.300057 0.283016 0.248579 0.232539 0.16907 0.124204 0.0687713 0.0757028 0.0846664 0.0855112 0.112405 0.0670102 0.127099 0.699209 0.830035 0.996328 1.02018 0.985876 1.00485 0.855251 1.0142 0.858515 0.00903601 0.0312505 0.04016 0.0203408 0.0514139 0.062844 0.0164315 0.0840123 0.0673738 0.0928629 0.0264338 0.0777268 0.0533208 0.0559842 0.0213499 0.00743656 0.651493 0.690383 0.596662 0.46315 0.561882 0.491105 0.63927 0.532366 0.366823 0.393132 0.59449 0.497078 0.454275 0.546454 0.0809512 0.0586189 0.0500249 0.0839337 0.123243 0.105895 0.0524508 0.0306854 0.0477049 0.0633203 0.0612414 0.035465 0.0797656 0.0485347 0.890053 0.703553 0.693089 0.869846 1.01523 1.02557 1.05295 1.02975 0.670243 0.834711 0.959312 0.944786 0.859635 0.805994 0.982601 0.852926 0.902314 0.848117 0.815544 0.836648 0.913123 0.946835 0.817523 0.673952 0.673848 0.580251 0.760006 0.64983 0.735228 0.70499 0.792507 0.870761 0.165167 0.157645 0.170758 0.111299 0.119414 0.18385 0.27913 0.352969 0.244317 0.231288 0.238207 0.125097 0.829863 0.786695 0.795055 0.714968 0.731443 0.691001 0.475208 0.556564 0.750332 0.583852 0.627192 0.658746 0.203207 0.320215 0.376401 0.329781 0.291864 0.241175 0.350675 0.246234 0.190435 0.244891 0.146685 0.267624 0.41435 0.432677 0.356722 0.261584 0.251622 0.324044 0.35801 0.316 0.409558 0.348258 0.378392 0.298959 0.283494 0.328362 0.882018 0.625003 0.569425 0.790725 1.05183 1.09151 0.937345 0.733159 0.427397 0.479859 0.845937 0.680826 0.681142 0.627588 0.886018 0.832023 0.166388 0.158048 0.234692 0.225646 0.263642 0.343041 0.241232 0.273868 0.167712 0.611443 0.572324 0.537382 0.499034 0.538499 0.380812 0.435456 0.301585 0.399274 0.314479 0.456573 0.407379 0.460665 0.546946 0.339545 0.498291 0.454745 0.228257 0.248213 0.287145 0.114678 0.220729 0.39813 0.340796 0.186942 0.287436 0.273692 0.199154 0.172865 0.139474 0.27552 0.178144 0.0996866 0.22818 0.155793 0.220557 0.0359429 0.0204023 0.0507621 0.0662946 0.0280947 0.0205077 0.0788723 0.113581 0.104774 0.121462 0.0491515 0.0972148 0.0551706 0.0156106 0.587579 0.424719 0.517496 0.390411 0.313999 0.279918 0.551738 0.417616 0.441992 0.148186 0.331465 0.50884 0.503232 0.339805 0.178112 0.358672 0.194744 0.344046 0.180699 0.165723 0.34307 0.172154 0.326492 1.07404 1.18082 1.07015 1.02786 1.07788 1.01423 1.12529 0.257579 0.28413 0.364933 0.392262 0.331112 0.275065 0.217919 0.213289 0.293093 0.259395 0.347996 0.286331 0.244608 0.325109 0.272569 0.31489 0.0758754 0.0627079 0.0814341 0.128325 0.152999 0.121371 0.112231 0.109757 0.0628894 0.079058 0.0810494 0.0997989 0.130002 0.0987626 0.0938353 0.169624 0.187719 0.0948367 0.205862 0.181421 0.112372 0.138209 0.0998539 1.29403 1.1565 0.954726 0.843467 1.11339 1.14158 1.2084 0.991331 1.0665 0.617967 0.686687 0.773022 0.768492 0.659594 0.593367 0.50537 0.458084 0.659602 0.545255 0.640258 0.53026 0.571075 0.650438 0.555988 0.67657 0.567439 0.556216 0.449544 0.374255 0.380448 0.468873 0.515837 0.456331 0.518078 0.470964 0.357939 0.387781 0.520655 0.433386 0.425173 0.459293 0.366387 0.424564 0.39936 0.317154 0.293897 0.310798 0.253852 0.20745 0.37959 0.276118 0.305532 0.284969 0.233041 0.347938 0.271846 0.215496 0.160176 0.260647 0.26293 0.241841 0.193702 0.0654253 0.0701022 0.0139813 0.137258 0.12072 0.140823 0.199531 0.848578 0.696533 0.710137 0.852567 0.98911 0.997445 1.00624 1.0072 1.00309 1.0127 0.850618 0.859082 0.997916 0.845175 0.226328 0.218136 0.245359 0.268649 0.247859 0.230974 0.170976 0.116502 0.202949 0.133741 0.164711 0.187311 0.178094 0.237182 1.30823 1.33531 1.25256 1.1562 1.13096 1.19982 1.22492 1.17033 1.27264 1.19018 1.05256 1.06568 1.25215 1.15808 1.13524 1.22984 0.113438 0.224433 0.0786471 0.178231 0.172226 0.137638 0.162514 0.756126 0.8793 0.815603 0.64347 0.471474 0.52305 0.804903 0.598029 0.480506 0.439677 0.661413 0.616343 0.457358 0.66117 0.539947 0.482535 0.339795 0.470743 0.438979 0.29885 0.219934 0.210736 0.379855 0.277113 0.325353 0.415377 0.279939 0.412986 0.511551 0.480608 0.340625 0.233612 0.217148 0.307454 0.481254 0.4268 0.344364 0.425369 0.278941 0.372049 0.692491 0.572314 0.693996 0.517474 0.720149 0.920004 0.932213 0.810568 0.659828 0.606236 0.749438 0.756996 0.608658 0.763132 0.595261 0.435467 0.428263 0.750168 0.602705 0.58387 0.772863 1.03098 1.00739 0.696382 0.877457 1.01313 0.858994 0.85188 1.00471 1.0486 0.913666 0.735317 0.728218 0.856896 0.821723 0.706755 0.955784 0.800099 0.555226 0.580021 0.876519 0.742845 0.688585 0.869914 0.689545 0.738526 0.688739 0.626797 0.604908 0.616875 0.539324 0.467271 0.64392 0.527072 0.591634 0.533071 0.491302 0.654054 0.0540246 0.104197 0.0390698 0.129798 0.0994155 0.0230745 0.078182 0.0957832 0.43411 0.361384 0.576357 0