# vtk DataFile Version 5.1
vtk output
ASCII

DATASET UNSTRUCTURED_GRID
POINTS 356 float
-0.562542 -0.521412 0
-0.562542 0.478592 0
0.437462 0.478592 0
0.437462 -0.521413 0
-0.527978 -0.541604 4
0.472026 -0.541605 4
0.472026 0.4584 4
-0.527978 0.4584 4
-0.562542 -0.0214099 0
-0.0625397 0.478592 0
0.437462 -0.0214103 0
-0.0625401 -0.521412 0
-0.0279758 -0.541605 4
0.472026 -0.0416024 4
-0.0279759 0.4584 4
-0.527978 -0.0416023 4
0.423765 0.545807 2.06986
0.433479 -0.440597 2.01285
-0.676406 -0.399212 1.93625
-0.522055 0.649738 1.99361
0.222025 -0.541605 4
-0.527978 -0.291603 4
-0.646798 0.494178 3.03884
-0.629738 -0.31171 0.989151
-0.469225 0.665926 0.961105
0.483912 0.496202 1.00097
-0.200191 -0.666089 1.44558
-0.75 0.179764 0.474369
-0.811605 0.165597 1.4789
0.103236 0.709238 0.471739
0.634864 -0.104311 0.539236
-0.664021 0.315439 0.24216
-0.277977 -0.541605 4
-0.527978 0.208399 4
0.352669 -0.523975 1.04286
0.377128 0.396333 3.04825
0.335478 -0.573883 2.90046
-0.620869 -0.507111 2.97574
-0.775322 -0.0858302 3.56342
-0.0859684 0.769412 2.59802
0.0795055 0.779782 1.51748
-0.485553 -0.505841 1.20701
0.137922 -0.661296 1.75364
-0.798219 -0.0994423 0.727981
-0.900687 0.0630523 2.49379
-0.0355933 -0.701698 2.42248
0.656598 -0.0751426 3.50492
0.598215 -0.0155045 2.48714
-0.129578 0.709819 3.53783
0.646073 -0.00970254 1.52971
-0.159897 -0.721182 0.529054
-0.0370272 -0.778168 3.47456
-0.397199 0.649802 2.81757
-0.675669 -0.369389 3.77572
-0.746523 0.173741 3.32464
0.189242 0.646488 2.32962
0.578643 0.286975 1.76232
0.196222 0.63346 3.2876
-0.355101 0.588923 3.74731
0.634037 -0.170411 2.25627
0.520706 0.248132 2.76744
0.534626 -0.247822 1.29547
-0.357796 -0.644873 0.273556
0.123226 -0.686582 0.7865
0.355832 0.382609 0.252461
0.377676 0.308244 1.39127
-0.0625399 -0.0214101 0
-0.656182 0.182298 2.78721
0.333186 -0.321349 0.662648
-0.152976 -0.166603 4
-0.562542 -0.271411 0
-0.312541 0.228591 0
0.187461 0.228591 0
0.103044 -0.543108 3.17907
0.414433 -0.0209619 3.10884
-0.557918 0.205049 0.855768
-0.614827 -0.0749816 2.18482
0.311803 0.264271 3.15857
-0.59506 -0.0115426 3.16981
-0.194975 -0.421158 0.872451
-0.312541 0.478592 0
-0.796273 -0.229719 2.71864
-0.12853 0.772384 0.698149
0.187461 -0.271411 0
0.222025 0.208399 4
0.280119 -0.24705 1.64864
-0.407775 0.392196 0.383474
-0.192804 0.546522 1.25128
-0.391077 -0.388255 3.63413
-0.623487 -0.0306499 0.848055
-0.190578 -0.439908 1.87677
0.332437 -0.434485 0.259599
0.372154 0.154604 2.88566
0.405113 -0.254487 0.523796
-0.312541 -0.521412 0
-0.354515 -0.487577 3.41421
0.521289 -0.0193158 3.75383
0.472026 -0.291604 4
-0.574431 0.0917508 3.64225
0.325231 -0.3493 0.89251
0.0351008 0.493664 0.236187
-0.421094 -0.3687 0.38816
0.45623 -0.0877386 0.248281
-0.277977 0.4584 4
-0.535072 -0.264724 3.08878
-0.532361 -0.278962 2.56288
-0.394942 0.494423 2.63866
-0.219483 0.457897 3.15517
-0.613746 0.262912 2.91673
-0.766409 0.463058 2.23307
0.110809 0.46723 3.64254
-0.0292386 0.608314 0.874213
-0.562542 0.228591 0
0.206836 -0.317621 2.70846
0.165038 0.495749 3.39142
-0.47161 0.378807 1.71009
0.518715 0.121396 1.38742
0.578994 0.240506 3.73271
0.579817 -0.396296 3.17782
0.465914 -0.0504081 2.62522
0.305525 -0.680875 3.73472
0.121453 -0.511359 0.652002
-0.26943 -0.504218 1.60892
-0.631461 0.442762 1.24615
-0.558959 -0.111678 1.1928
-0.145057 0.538356 2.1514
0.0970248 -0.291603 4
-0.427774 -0.616219 2.17728
-0.606069 -0.163812 3.40101
-0.0679094 -0.567749 0.382779
0.476149 0.174654 1.05113
0.0828456 -0.469261 1.88703
-0.575715 -0.194305 0.530615
-0.340745 0.555197 1.13807
-0.727573 0.0494324 2.67128
0.0245609 -0.514074 0.907166
-0.205318 0.50696 0.555064
0.41883 -0.257346 3.41091
0.142398 -0.382493 2.22911
0.270479 0.247751 2.37557
-0.722804 0.0594688 2.32258
0.240321 0.703225 1.26364
0.142109 0.485434 2.44222
0.0408378 0.575761 1.80455
0.39144 0.190151 1.90783
-0.598452 0.403823 1.9712
-0.506963 -0.310874 0.847886
-0.228694 0.523619 3.397
-0.371553 0.495851 0.807608
-0.426784 0.316142 3.41964
0.285955 -0.483187 3.11698
-0.277977 0.0833983 4
0.0754 -0.688354 2.65241
-0.346236 -0.691355 3.25146
-0.0994501 0.618213 2.42488
0.140316 0.49681 0.972383
0.314684 0.242531 3.36152
0.170156 -0.464551 0.382196
0.713166 0.234969 0.742001
0.367546 0.253114 3.59871
0.451918 0.0253626 1.14979
0.471487 0.269246 1.61642
0.461578 -0.1739 3.21836
-0.201312 0.77229 1.79332
-0.526599 -0.361756 2.814
-0.481703 0.309188 0.59638
0.195597 0.470197 2.91126
-0.511858 0.372937 3.19786
-0.318251 0.420912 3.62859
-0.488742 0.461509 2.43983
-0.762433 -0.0691698 1.71054
-0.113242 0.579527 2.70143
-0.193179 -0.527848 0.622982
-0.636956 0.0683647 1.94027
0.276233 0.39081 2.17936
0.254056 -0.422538 1.17203
0.0333486 -0.601753 3.33508
0.3445 -0.276454 1.8682
-0.319437 -0.586626 3.08791
-0.0194595 -0.482863 1.38405
-0.0826916 0.640599 1.38179
0.126333 0.354546 2.6816
-0.0544147 -0.528954 3.75789
-0.270874 -0.229744 0
0.46201 0.235732 0.613287
-0.0126317 -0.427232 2.3829
-0.542098 0.399719 2.25981
-0.378475 -0.436819 2.35373
0.186612 0.571913 1.52975
-0.142469 -0.438915 1.1157
-0.533489 0.392291 1.42
-0.601158 0.255616 1.12275
0.0761913 -0.0207691 4
0.393661 0.185939 2.52641
-0.185759 -0.526544 2.83124
0.110856 0.52864 0.636952
-0.590777 -0.0406502 0.244099
0.378568 -0.301626 2.9516
0.106143 0.574234 2.15276
0.466863 -0.0220573 0.805565
-0.508524 -0.181377 1.52063
-0.328301 0.4435 1.48737
0.232353 -0.220984 2.4758
-0.35485 -0.44973 2.53966
0.144172 -0.367379 1.32539
-0.610726 0.167162 1.64527
0.0343269 -0.505833 1.59971
-0.246218 0.566675 1.99823
0.439976 -0.0514646 1.62393
-0.212207 0.620446 1.64064
-0.550352 -0.296129 2.09051
-0.0505168 0.202593 4
0.222025 0.4584 4
0.503181 0.00811466 2.18805
0.0690937 0.511845 3.15548
-0.333731 0.491055 2.95053
0.325634 -0.44598 3.65304
0.37709 0.223912 0.372646
0.163029 0.529858 1.90385
-0.520156 -0.326199 1.82152
-0.193736 -0.444939 2.0963
0.388012 0.182621 2.14196
-0.151297 0.111752 1.89106
0.18439 0.0292966 0.648596
0.157123 -0.020733 3.61795
-0.16096 0.0198262 2.70497
0.00781473 0.568434 0.415294
-0.458826 -0.451295 3.77996
-0.0117683 0.242314 1.37508
-0.648163 -0.17651 0.651556
0.529217 0.0297395 0.46187
-0.0473879 -0.203918 2.56189
-0.0451788 -0.288772 0
0.160221 0.179901 3.53815
-0.13285 -0.130973 3.17826
0.391811 -0.096846 2.85999
0.4238 -0.231793 2.36334
0.170026 -0.589193 3.80741
0.0758316 -0.216052 0.746111
0.051795 0.265945 0.451746
0.234966 0.203863 0.914148
-0.285234 0.0725828 2.30208
-0.253155 0.230525 0.954792
0.0602296 -0.0747748 1.11577
-0.167756 0.529356 3.79564
0.0271726 -0.5774 2.7944
-0.0961781 0.0397747 3.7739
-0.122703 0.401942 0.69626
0.0430914 0.591111 1.17202
0.270968 -0.0874236 1.31069
-0.291708 -0.000576607 0
-0.263843 -0.230184 2.70225
-0.279069 0.034894 1.63925
0.157717 0.415253 3.78372
-0.619018 -0.276842 3.56938
0.105197 -0.113595 0.304191
-0.344883 0.140198 3.06616
-0.60306 0.285757 0.503493
0.156264 0.0448336 2.7561
-0.328212 0.238567 2.77591
-0.313141 -0.0908073 2.91427
-0.485647 0.154018 2.63173
-0.641987 0.142297 1.33827
0.13488 -0.0078163 3.25115
0.0520725 0.0411775 2.43122
-0.197504 -0.496966 3.83623
0.276424 0.012796 4
0.175077 0.170194 1.73912
-0.0725658 -0.392776 2.69085
-0.260339 -0.357304 3.13085
-0.485629 0.150886 3.75784
-0.0110532 0.185927 1.10467
-0.450474 -0.431636 0.228603
-0.071852 -0.153932 1.38702
-0.633649 0.183019 3.4307
-0.152111 0.318543 2.4579
-0.0625398 0.228591 0
-0.00664851 -0.283785 1.73837
-0.285897 -0.103762 1.01976
-0.00135147 0.282804 3.25775
0.155506 -0.341105 3.75241
-0.305416 0.133997 1.25798
0.0299644 -0.306387 3.39059
-0.0338074 0.368051 3.52949
-0.355687 -0.408154 1.66627
0.312011 0.487605 1.63617
-0.148586 -0.178359 1.89797
-0.31016 -0.149449 2.45896
-0.440392 0.393886 0.21252
-0.324627 -0.0921578 3.31776
-0.442052 0.587234 1.81076
-0.0918941 0.032751 0.855624
-0.15645 0.341469 1.69035
0.451259 -0.219798 3.73022
-0.100055 0.0376958 3.44428
-0.0265437 0.230493 2.13369
-0.0944869 0.514752 2.9285
0.234088 0.045928 1.027
-0.257837 -0.516321 2.95993
0.308453 0.490842 1.27209
0.305959 -0.0743672 3.39075
-0.505358 -0.0733993 3.8412
0.187461 -0.0214102 0
-0.546143 -0.235427 0.173981
-0.390883 0.128455 1.82576
-0.271751 -0.249625 2.23457
-0.106723 0.00690099 0.553001
-0.385455 -0.454236 1.38697
0.16366 0.0642582 3.02073
-0.0694428 -0.497533 0.194523
-0.455096 0.0103821 0.596472
-0.11146 -0.251559 0.239915
0.0176596 0.236307 0.820054
-0.245048 -0.202333 3.72361
-0.155018 -0.249583 0.488353
-0.509153 0.0691793 1.51112
-0.20775 -0.174038 0.683574
-0.668548 -0.180084 2.88591
-0.0886813 0.245901 2.84565
-0.400781 0.262412 2.08336
-0.28187 0.338744 2.29356
-0.62171 -0.0779909 1.85889
-0.508582 -0.000772525 2.47363
0.0918928 0.00279338 1.92077
-0.0652376 0.546165 1.97973
0.0105361 -0.24734 2.97313
-0.155481 0.186203 0.315058
-0.368446 0.00599923 0.362886
-0.465375 -0.272504 1.43359
-0.394444 -0.132841 1.98225
-0.320366 0.14378 0.755961
-0.18861 -0.0504694 2.10255
0.180441 -0.251231 0.99983
0.208017 -0.045635 1.52646
0.00279922 0.322702 1.80259
-0.0208483 0.0745426 1.55638
0.111764 0.341147 1.52918
-0.106701 -0.629512 3.57539
0.0199954 -0.177474 2.31522
0.320043 -0.340003 2.13239
-0.297814 -0.283866 1.24252
0.194259 0.0245837 2.18119
-0.374141 0.000244156 3.51556
0.247443 -0.197672 2.02673
0.0909221 -0.22267 0.474472
-0.215598 -0.167651 1.56954
-0.261678 0.134663 3.62285
0.134143 0.364869 1.19539
-0.236378 0.18523 3.28456
-0.0464704 0.297149 3.77454
-0.15036 -0.209418 3.52417
-0.0900724 0.547489 1.04507
0.294662 0.50196 1.96532
-0.17363 -0.0225571 0.238964
-0.0190012 0.297135 3.03136
-0.0519769 0.00658263 2.95266

CELLS 1279 5112
OFFSETS vtktypeint64
[...]
POINT_DATA 356
SCALARS scalars float 1
LOOKUP_TABLE default
1.47387 1.44452 1.35517 1.3864 1.46345 1.4247 1.36505 1.40544 1.06276 0.980588 0.937707 1.02333 1.04198 0.972916 0.958808 1.02882 0.113096 0.0901046 0.212936 0.151489 1.14357 1.16193 1.14747 1.14537 1.16698 0.98392 0.721674 1.42311 0.735229 1.35165 1.28633 1.42125 1.16778 1.12555 1.03541 0.906002 0.844625 1.01463 1.40487 0.652342 0.643747 0.986507 0.396396 1.35879 0.592884 0.512215 1.23217 0.494518 1.36435 0.531053 1.38838 1.35967 0.912125 1.46243 1.29067 0.35266 0.227411 1.17406 1.38454 0.355857 0.748622 0.750003 1.43077 1.2455 1.06426 0.42388 0.0661032 0.702039 0.887155 0.402868 1.18358 0.738581 0.648399 0.814653 0.633635 0.899298 0.151844 0.766401 0.877682 0.812632 1.12876 0.788195 1.32651 0.680619 0.657979 0.331572 1.0392 0.626943 1.02733 1.00575 0.199835 1.10117 0.660759 0.991125 1.16608 1.00895 1.04703 1.11273 1.07508 0.858212 1.03385 1.04514 1.01412 1.09421 0.838147 0.409989 0.62949 0.853367 0.84035 0.26949 0.967493 0.871417 1.16535 0.422386 1.00282 0.320077 0.455576 1.30877 1.08718 0.485191 1.42953 1.02295 0.472847 0.951892 0.793735 0.152348 0.585345 0.154959 1.08199 1.12403 0.69 0.183717 1.07691 0.820899 0.646953 0.913787 1.00791 0.921358 0.119187 0.337729 0.297812 0.767829 0.425347 0.232299 0.114156 0.233567 1.00834 1.02939 1.00302 0.963903 0.824891 0.567617 0.613258 1.20124 0.399563 0.715105 0.798502 0.984162 1.2418 0.942997 0.580253 0.298193 0.764975 0.406488 0.615365 1.01713 0.739824 1.02014 1.07263 0.466147 0.506007 0.685526 1.04623 0.202236 0.254343 0.748478 1.00575 0.172056 0.887236 0.590062 0.571629 0.518208 1.0314 0.64927 0.966666 0.175753 0.326403 0.223879 0.430134 0.711671 0.627711 0.862785 0.180358 0.429655 0.534247 0.989732 1.09405 0.64804 0.177704 0.861513 0.483459 0.446754 0.321383 0.347107 0.563546 0.404289 0.521423 0.0670689 0.321079 0.44511 0.0632902 0.452721 1.06833 0.223401 0.880505 0.862494 1.04123 0.905223 0.0672462 0.312813 0.085555 0.188252 0.113148 0.370501 0.326188 0.153175 1.11507 1.20527 0.175223 1.15714 1.06197 0.0786409 0.556829 0.537997 0.218874 0.537782 0.29968 1.1913 0.464265 0.543278 0.456749 0.177155 0.423212 0.187778 1.12311 0.592801 0.198439 0.680379 0.675407 0.327127 0.521268 0.224244 0.22546 0.936065 1.21233 0.331621 0.55209 1.18976 0.304369 0.454963 0.345208 0.415834 0.733492 0.304669 0.190708 1.0366 0.584696 0.0300608 0.261322 0.608612 1.01096 0.154865 1.18815 0.272273 1.14052 0.372835 0.48266 0.252195 0.466119 0.576286 0.700227 0.381202 0.476438 0.683963 0.3765 0.27631 0.144943 0.0670035 1.14884 0.572381 0.288966 0.138908 0.182957 0.972276 0.180168 0.223524 0.756241 0.322644 0.642663 0.561441 0.607137 1.02478 0.437985 1.09441 0.1957 0.0392962 0.169335 0.671085 0.344383 1.01758 0.747268 0.538443 0.316867 0.569927 0.56029 0.427209 0.487932 0.777652 0.398846 0.184275 0.293005 0.255297 0.272431 0.119856 0.0609291 0.250745 0.457904 0.636613 0.5685 0.131129 0.519119 0.108597 0.530785 0.200655 0.0493591 0.0598975 0.196583 1.14256 0.11035 0.1602 0.568002 0.127722 0.656143 0.0951353 0.499318 0.302069 0.575452 0.400884 0.519482 0.623072 0.453512 0.695919 0.0528649 0.250961 0.538051 0.101317 
