# vtk DataFile Version 5.1
vtk output
ASCII

DATASET UNSTRUCTURED_GRID
POINTS 4864 float
0.166667 0 0
0.240526 -0.0598521 -0.0567817
0.413332 -0.100773 -0.099014
0.588211 -0.098262 -0.101908
0.7532 -0.0686312 -0.0779711
0.833333 0 0
0.166667 0.166667 0
0.279415 0.126478 -0.0762116
0.422875 0.0883972 -0.108664
0.577537 0.0887716 -0.112321
0.725549 0.122112 -0.089212
0.833333 0.166667 0
0.166667 0.333333 0
0.284972 0.319457 -0.0808859
0.427686 0.295317 -0.116718
0.572113 0.294896 -0.119702
0.719477 0.317126 -0.0925066
0.833333 0.333333 0
0.166667 0.5 0
0.288152 0.504368 -0.0804975
0.429598 0.502621 -0.116033
0.570519 0.501507 -0.11831
0.717217 0.501999 -0.0909617
0.833333 0.5 0
0.166667 0.666667 0
0.287387 0.690802 -0.0839297
0.429956 0.711267 -0.118566
0.574251 0.709081 -0.1211
0.721071 0.687131 -0.0925117
0.833333 0.666667 0
0.166667 0.833333 0
0.283617 0.886033 -0.0823268
0.425161 0.919236 -0.112614
0.579804 0.915983 -0.116339
0.727564 0.879876 -0.0920971
0.833333 0.833333 0
0.166667 1 0
0.23158 1.07947 -0.0657857
0.409823 1.10696 -0.101123
0.593983 1.10322 -0.105987
0.766177 1.06782 -0.0785355
0.833333 1 0
0.166667 0 0.2
0.277674 -0.0801875 0.16792
0.424301 -0.110881 0.129653
0.57566 -0.110567 0.125612
0.72041 -0.0829714 0.155081
0.833333 0 0.2
0.166667 0.166667 0.2
0.314119 0.118077 0.15994
0.438051 0.0828557 0.125048
0.562208 0.0834794 0.122239
0.684446 0.116147 0.1513
0.833333 0.166667 0.2
0.166667 0.333333 0.2
0.31847 0.310991 0.157598
0.441794 0.290336 0.122274
0.557806 0.291375 0.120413
0.680368 0.311972 0.149832
0.833333 0.333333 0.2
0.166667 0.5 0.2
0.319203 0.500294 0.159386
0.442857 0.50179 0.124396
0.557475 0.502425 0.123236
0.679703 0.501593 0.152661
0.833333 0.5 0.2
0.166667 0.666667 0.2
0.319922 0.691017 0.155599
0.443832 0.714327 0.119423
0.559894 0.713919 0.117725
0.680985 0.691489 0.149221
0.833333 0.666667 0.2
0.166667 0.833333 0.2
0.316481 0.88846 0.154901
0.439835 0.922969 0.120056
0.564613 0.921476 0.117447
0.68535 0.886866 0.146892
0.833333 0.833333 0.2
0.166667 1 0.2
0.275748 1.08884 0.158113
0.426244 1.11614 0.124194
0.577854 1.11382 0.12093
0.724558 1.0849 0.147071
0.833333 1 0.2
0.166667 0 0.4
0.282809 -0.0818473 0.39438
0.427134 -0.115254 0.377329
0.568925 -0.115545 0.376043
0.712999 -0.0856953 0.390265
0.833333 0 0.4
0.166667 0.166667 0.4
0.316723 0.118628 0.386905
0.439413 0.0822173 0.373632
0.556512 0.0828026 0.374261
0.680241 0.117035 0.386989
0.833333 0.166667 0.4
0.166667 0.333333 0.4
0.319962 0.31037 0.384559
0.442646 0.290003 0.372395
0.553437 0.291814 0.374688
0.677734 0.312446 0.386674
0.833333 0.333333 0.4
0.166667 0.5 0.4
0.321006 0.4985 0.384657
0.444406 0.499963 0.372193
0.554547 0.502126 0.375711
0.678112 0.501726 0.388143
0.833333 0.5 0.4
0.166667 0.666667 0.4
0.321864 0.68787 0.383977
0.445996 0.710672 0.369888
0.556805 0.712012 0.372423
0.679314 0.690584 0.38653
0.833333 0.666667 0.4
0.166667 0.833333 0.4
0.319452 0.883616 0.384176
0.442969 0.919392 0.370011
0.560517 0.919485 0.370795
0.682672 0.883567 0.384745
0.833333 0.833333 0.4
0.166667 1 0.4
0.28522 1.08578 0.385531
0.430282 1.11672 0.37288
0.572073 1.11593 0.371676
0.715175 1.08416 0.382346
0.833333 1 0.4
0.166667 0 0.6
0.284314 -0.0843396 0.616526
0.427921 -0.116599 0.627153
0.56971 -0.117184 0.625791
0.714827 -0.0858861 0.61348
0.833333 0 0.6
0.166667 0.166667 0.6
0.317498 0.116359 0.614486
0.439597 0.0801664 0.628475
0.55701 0.0804986 0.628965
0.680547 0.115941 0.61504
0.833333 0.166667 0.6
0.166667 0.333333 0.6
0.320699 0.309175 0.612824
0.443209 0.287869 0.627055
0.55399 0.289355 0.629382
0.678081 0.311773 0.615465
0.833333 0.333333 0.6
0.166667 0.5 0.6
0.321871 0.498065 0.61122
0.445391 0.497934 0.623763
0.555558 0.500065 0.627281
0.678908 0.501219 0.614907
0.833333 0.5 0.6
0.166667 0.666667 0.6
0.32231 0.687421 0.612756
0.446619 0.708282 0.62465
0.557431 0.709921 0.62702
0.680003 0.689447 0.614981
0.833333 0.666667 0.6
0.166667 0.833333 0.6
0.319718 0.882888 0.612404
0.443544 0.917156 0.624698
0.560734 0.917732 0.625459
0.683414 0.881433 0.612662
0.833333 0.833333 0.6
0.166667 1 0.6
0.287094 1.08503 0.608992
0.431294 1.11501 0.622593
0.572804 1.11488 0.621496
0.716675 1.08157 0.605138
0.833333 1 0.6
0.166667 0 0.8
0.276964 -0.0861547 0.850542
0.422494 -0.114964 0.877853
0.574252 -0.117104 0.873954
0.72485 -0.0899046 0.840256
0.833333 0 0.8
0.166667 0.166667 0.8
0.31565 0.112311 0.851504
0.43573 0.0778604 0.88197
0.560213 0.0764504 0.878557
0.683491 0.110641 0.844304
0.833333 0.166667 0.8
0.166667 0.333333 0.8
0.319603 0.307925 0.849786
0.440302 0.285739 0.881679
0.556194 0.285631 0.879501
0.680135 0.308499 0.843912
0.833333 0.333333 0.8
0.166667 0.5 0.8
0.320793 0.49811 0.846396
0.44278 0.497578 0.876199
0.557356 0.498279 0.87498
0.680899 0.499283 0.840651
0.833333 0.5 0.8
0.166667 0.666667 0.8
0.319968 0.687991 0.849305
0.442465 0.708788 0.878913
0.558427 0.709663 0.877118
0.681686 0.688768 0.842366
0.833333 0.666667 0.8
0.166667 0.833333 0.8
0.315633 0.884094 0.847946
0.437895 0.916631 0.876948
0.562265 0.916899 0.874192
0.686061 0.881822 0.840373
0.833333 0.833333 0.8
0.166667 1 0.8
0.280116 1.08343 0.843508
0.425185 1.11031 0.87308
0.576537 1.11023 0.869341
0.721866 1.07936 0.831952
0.833333 1 0.8
0.166667 0 1
0.235078 -0.0704248 1.07936
0.406215 -0.103992 1.10614
0.591475 -0.108355 1.09912
0.772936 -0.080847 1.06138
0.833333 0 1
0.166667 0.166667 1
0.272034 0.120014 1.0912
0.420623 0.0829304 1.11568
0.575333 0.0794882 1.11109
0.715959 0.111614 1.0799
0.833333 0.166667 1
0.166667 0.333333 1
0.279009 0.313076 1.0917
0.426171 0.289923 1.12065
0.570336 0.288057 1.11748
0.71262 0.307453 1.08312
0.833333 0.333333 1
0.166667 0.5 1
0.283121 0.49828 1.09008
0.429674 0.498233 1.11765
0.570764 0.497016 1.11537
0.71226 0.494637 1.08048
0.833333 0.5 1
0.166667 0.666667 1
0.280285 0.683337 1.09158
0.42784 0.705211 1.11874
0.572501 0.704732 1.11597
0.715182 0.6802 1.08071
0.833333 0.666667 1
0.166667 0.833333 1
0.275191 0.877728 1.08902
0.422892 0.911606 1.1115
0.578525 0.911279 1.10761
0.720891 0.87427 1.07622
0.833333 0.833333 1
0.166667 1 1
0.246642 1.06881 1.0784
0.413318 1.09885 1.10125
0.58692 1.1003 1.09786
0.757164 1.06057 1.05517
0.833333 1 1
0.166667 0 0.0666667
0.166667 0 0.133333
0.196279 -0.027866 0.116558
0.220307 -0.0479576 0.0229405
0.184253 -0.0462277 -0.0450037
0.169904 -0.0245309 -0.0255147
0.166667 0.0555556 0
0.166667 0.111111 0
0.166667 0.0555556 0.133333
0.166667 0.111111 0.0666667
0.220285 0.0108745 -0.0474377
0.198809 0.0852226 -0.0301191
0.166667 0.0555556 0.0666667
0.205233 0.0330846 0.0345593
0.186014 0.0323564 -0.0308876
0.183057 -0.0283652 0.0401959
0.26338 -0.00515475 -0.0672011
0.274707 0.059826 -0.0736538
0.241427 0.136215 -0.0631537
0.202392 0.150783 -0.034753
0.255541 0.0709955 0.0205398
0.215647 0.0282177 0.114686
0.242793 0.008117 0.0212683
0.211738 0.0907594 0.0394136
0.234286 0.0710207 -0.0559277
0.166667 0.0555556 0.2
0.166667 0.111111 0.2
0.221653 0.149524 0.115517
0.258605 0.136087 0.0193379
0.166667 0.166667 0.133333
0.166667 0.166667 0.0666667
0.166667 0.111111 0.133333
0.214587 0.149571 0.0403265
0.216491 0.089839 0.113853
0.264647 -0.0711281 0.010018
0.274366 -0.077356 0.0864373
0.29313 -0.0162512 0.0857398
0.294965 0.0544569 0.00295878
0.234541 -0.0642241 0.176121
0.198134 -0.035475 0.188238
0.232319 -0.0590375 0.0986712
0.252103 0.0019871 0.0984117
0.282658 -0.0118404 0.00629349
0.256183 0.00170058 0.17404
0.221334 0.0885031 0.18606
0.211354 0.0263152 0.185704
0.260387 0.0677245 0.0979431
0.300729 0.120896 0.00132391
0.311045 0.11785 0.081103
0.219981 0.149991 0.186263
0.270434 0.130611 0.171002
0.297805 -0.0179417 0.163947
0.309021 0.0501729 0.161165
0.266988 0.132611 0.0957181
0.26603 0.0660271 0.172069
0.303305 0.0508303 0.0822851
0.32067 -0.0901122 0.072408
0.363431 -0.0959703 -0.018075
0.353571 -0.0931958 -0.0905779
0.294142 -0.0809962 -0.0775647
0.361207 -0.0325274 -0.0916099
0.319008 0.0434434 -0.0838073
0.325377 -0.0246964 -0.00740465
0.310066 -0.0211986 -0.0805371
0.312831 -0.0854361 -0.00597788
0.416503 -0.0404352 -0.10036
0.419624 0.0230512 -0.103624
0.372355 0.0971835 -0.100056
0.32397 0.110411 -0.0883725
0.379718 0.0299292 -0.0221025
0.334801 -0.0287718 0.0716895
0.371683 -0.034485 -0.0187517
0.334868 0.040791 -0.00994219
0.367353 0.031391 -0.0940186
0.351076 0.105543 0.0669387
0.384221 0.0966548 -0.0255933
0.341381 0.107423 -0.0127679
0.343949 0.0369923 0.0686395
0.417479 -0.101516 -0.0265291
0.421561 -0.105483 0.0495495
0.426904 -0.0448829 0.0502445
0.426625 0.0230735 -0.0300405
0.374615 -0.104431 0.137868
0.324919 -0.0939854 0.151576
0.370045 -0.0982719 0.0585452
0.379494 -0.0377245 0.058906
0.42149 -0.0408235 -0.0268411
0.383965 -0.0422481 0.138247
0.349779 0.0353263 0.148645
0.339516 -0.0312581 0.149865
0.385592 0.0269721 0.0570618
0.429918 0.0890647 -0.034076
0.434971 0.0867592 0.0442367
0.355026 0.103286 0.147054
0.397257 0.0902418 0.133758
0.429926 -0.0499594 0.130323
0.434441 0.0155134 0.12856
0.391947 0.0945656 0.0535837
0.391497 0.023116 0.137153
0.430495 0.0201911 0.0477838
0.473926 -0.108843 0.0450031
0.527489 -0.104495 -0.0331142
0.529198 -0.10294 -0.104753
0.470637 -0.103421 -0.103263
0.526446 -0.0428876 -0.105807
0.471985 0.0196759 -0.107104
0.473145 -0.0435915 -0.0314727
0.470637 -0.0432676 -0.103848
0.471969 -0.10389 -0.0313591
0.582768 -0.0387593 -0.10381
0.579091 0.023817 -0.107308
0.525491 0.0850023 -0.11386
0.473375 0.0852623 -0.112036
0.524291 0.0197798 -0.0362889
0.475552 -0.0479774 0.0454733
0.524928 -0.0437531 -0.0332117
0.474658 0.0200462 -0.0340695
0.52506 0.0196549 -0.108295
0.478586 0.0837506 0.0401136
0.523437 0.0858534 -0.040814
0.476502 0.0862746 -0.0381471
0.476375 0.0161187 0.0434781
0.582673 -0.100591 -0.0303872
0.578857 -0.104982 0.0454071
0.573355 -0.0446339 0.0457939
0.573756 0.0233563 -0.0342247
0.525504 -0.114287 0.122895
0.474537 -0.11418 0.124887
0.526161 -0.107529 0.0429647
0.524423 -0.0471387 0.0440299
0.576894 -0.0401541 -0.0309903
0.522789 -0.0530266 0.123765
0.4779 0.0122345 0.124435
[...]
POINT_DATA 4864
SCALARS scalars float 1
LOOKUP_TABLE default
0.166667 0.0919175 0.141904 0.142055 0.11393 0.166667 0.166667 0.117176 0.135857 0.138521 0.124446 0.166667 0.166667 0.118133 0.125837 0.128778 0.12371 0.166667 0.166667 0.119456 0.119777 0.121937 0.123008 0.166667 0.166667 0.123544 0.130171 0.130871 0.123317 0.166667 0.166667 0.128634 0.143855 0.144131 0.126076 0.166667 0.166667 0.107892 0.14752 0.148066 0.10914 0.166667 0.166667 0.116157 0.133543 0.135466 0.123437 0.166667 0.166667 0.130342 0.118701 0.119979 0.135191 0.166667 0.166667 0.127798 0.0981668 0.0993723 0.131472 0.166667 0.166667 0.125933 0.0869247 0.0877891 0.129286 0.166667 0.166667 0.130176 0.10337 0.103007 0.131754 0.166667 0.166667 0.136531 0.12654 0.125843 0.137225 0.166667 0.166667 0.124035 0.141147 0.14035 0.125302 0.166667 0.166667 0.116567 0.120556 0.122025 0.122506 0.166667 0.166667 0.1269 0.0968523 0.0979126 0.130288 0.166667 0.166667 0.123112 0.0667695 0.0673255 0.124751 0.166667 0.166667 0.121984 0.0523941 0.0515791 0.122476 0.166667 0.166667 0.124728 0.0704188 0.0684287 0.123768 0.166667 0.166667 0.130566 0.100756 0.0991662 0.128538 0.166667 0.166667 0.121778 0.123599 0.122565 0.120785 0.166667 0.166667 0.120396 0.122931 0.123752 0.121707 0.166667 0.166667 0.128633 0.0993027 0.100559 0.130646 0.166667 0.166667 0.123759 0.0683086 0.0701025 0.124773 0.166667 0.166667 0.122401 0.0512771 0.0521474 0.122012 0.166667 0.166667 0.124712 0.0671771 0.0664314 0.123055 0.166667 0.166667 0.130161 0.097633 0.0965047 0.126752 0.166667 0.166667 0.122053 0.121314 0.119993 0.11672 0.166667 0.166667 0.126098 0.140655 0.140874 0.123899 0.166667 0.166667 0.137776 0.126025 0.126068 0.13666 0.166667 0.166667 0.132019 0.102767 0.102542 0.130048 0.166667 0.166667 0.12941 0.0874202 0.0862756 0.125849 0.166667 0.166667 0.131446 0.0990191 0.0975916 0.1276 0.166667 0.166667 0.135079 0.119564 0.117947 0.130243 0.166667 0.166667 0.123577 0.134695 0.132326 0.11586 0.166667 0.166667 0.111751 0.148725 0.147097 0.105052 0.166667 0.166667 0.125229 0.14429 0.143349 0.128364 0.166667 0.166667 0.122723 0.130869 0.12935 0.123342 0.166667 0.166667 0.12258 0.121345 0.11905 0.119182 0.166667 0.166667 0.122925 0.127906 0.125114 0.117862 0.166667 0.166667 0.124695 0.138138 0.134596 0.117232 0.166667 0.166667 0.114269 0.142132 0.140739 0.0924561 0.166667 0.166667 0.166667 0.133632 0.108519 0.0821899 0.109137 0.166667 0.166667 0.166667 0.166667 0.108662 0.137981 0.166667 0.144001 0.125443 0.122686 0.110539 0.116774 0.128841 0.141002 0.136644 0.152611 0.127644 0.149006 0.122174 0.166667 0.166667 0.156946 0.137361 0.166667 0.166667 0.166667 0.151216 0.152575 0.111568 0.117105 0.126864 0.127619 0.122221 0.136677 0.120353 0.13489 0.122554 0.136625 0.156931 0.148303 0.138843 0.128495 0.132068 0.154829 0.144698 0.127544 0.130795 0.142962 0.142903 0.130044 0.121443 0.131519 0.131527 0.115462 0.130107 0.119759 0.123991 0.119419 0.121275 0.139853 0.137395 0.127913 0.119407 0.128926 0.124713 0.129901 0.12436 0.127876 0.123569 0.126503 0.124105 0.125106 0.138912 0.136423 0.1331 0.133461 0.128337 0.120713 0.128835 0.127951 0.135994 0.126264 0.123646 0.123924 0.125011 0.130638 0.124685 0.120945 0.119645 0.129938 0.124213 0.122451 0.122784 0.128511 0.140363 0.144602 0.146925 0.146202 0.144684 0.140925 0.139655 0.143409 0.142935 0.141311 0.139901 0.140338 0.13865 0.137924 0.136079 0.141098 0.136031 0.141988 0.125328 0.134836 0.13246 0.131117 0.140848 0.138561 0.135687 0.136267 0.138087 0.136898 0.140643 0.136384 0.138676 0.13309 0.124951 0.131616 0.131751 0.133803 0.127378 0.117246 0.118926 0.131951 0.126278 0.12641 0.125913 0.13164 0.13364 0.128729 0.126299 0.136526 0.128431 0.13486 0.134573 0.13509 0.134599 0.11992 0.12397 0.128598 0.133609 0.132074 0.132981 0.130601 0.13322 0.129209 0.126803 0.131821 0.13132 0.130663 0.119825 0.12193 0.134198 0.133295 0.127294 0.131627 0.12719 0.131136 0.129519 0.131088 0.126998 0.13043 0.131953 0.133474 0.136069 0.121711 0.126553 0.133285 0.136417 0.129853 0.129622 0.136887 0.117887 0.137336 0.0977951 0.0981785 0.119795 0.11804 0.132374 0.111091 0.117342 0.166667 0.166667 0.129403 0.122397 0.15606 0.139957 0.150554 0.137463 0.124224 0.146397 0.158019 0.139714 0.145908 0.166667 0.166667 0.166667 0.166667 0.138226 0.125893 0.137811 0.149955 0.166667 0.156793 0.147632 0.140946 0.157977 0.166667 0.166667 0.146998 0.157825 0.166667 0.166667 0.156988 0.157981 0.166667 0.166667 0.166667 0.166667 0.166667 0.122739 0.141001 0.166667 0.150109 0.14211 0.117462 0.117173 0.129827 0.143499 0.138455 0.156663 0.135795 0.150992 0.124591 0.166667 0.166667 0.157178 0.138234 0.166667 0.166667 0.166667 0.152298 0.154211 0.131415 0.128392 0.143048 0.12718 0.143067 0.156875 0.155012 0.140377 0.127748 0.130349 0.155233 0.143896 0.130554 0.1294 0.143417 0.143581 0.129507 0.123801 0.116356 0.121944 0.116867 0.13165 0.127626 0.120989 0.115956 0.120991 0.121987 0.12271 0.120669 0.120631 0.118693 0.118995 0.120208 0.119683 0.119448 0.122802 0.11885 0.125908 0.113831 0.117497 0.11891 0.114293 0.119627 0.110244 0.113599 0.106235 0.111496 0.103941 0.112837 0.109231 0.113745 0.136241 0.13047 0.127951 0.133611 0.135179 0.131804 0.129868 0.127789 0.126129 0.119344 0.129978 0.123644 0.131475 0.108027 0.122811 0.120052 0.113775 0.122728 0.126373 0.120218 0.130522 0.111426 0.101134 0.109124 0.115108 0.123228 0.112949 0.094092 0.0962934 0.113446 0.106136 0.110053 0.102572 0.117572 0.127514 0.128698 0.129068 0.13119 0.123351 0.122968 0.125338 0.127427 0.129835 0.124029 0.130956 0.12671 0.125603 0.116603 0.128609 0.124196 0.120649 0.136348 0.133884 0.127551 0.134017 0.125527 0.111964 0.117122 0.127071 0.132567 0.134049 0.107541 0.118368 0.135029 0.13376 0.124495 0.121358 0.135625 0.129467 0.12281 0.142357 0.123115 0.166667 0.166667 0.131335 0.123759 0.15726 0.146485 0.157183 0.140579 0.128606 0.146186 0.158562 0.140975 0.1469 0.166667 0.166667 0.156772 0.166667 0.158294 0.14651 0.146628 0.158414 0.166667 0.166667 0.145598 0.157427 0.166667 0.166667 0.157587 0.157583 0.166667 0.166667 0.166667 0.166667 0.166667 0.12371 0.141528 0.166667 0.150514 0.143146 0.116798 0.11723 0.131041 0.144711 0.138294 0.156568 0.135697 0.151574 0.125154 0.166667 0.166667 0.157114 0.138741 0.166667 0.166667 0.166667 0.15305 0.154247 0.129592 0.127743 0.142785 0.126123 0.142431 0.156681 0.154966 0.140153 0.127842 0.129744 0.155454 0.143374 0.127946 0.127417 0.14373 0.142978 0.128102 0.117084 0.11436 0.118277 0.113597 0.122199 0.120122 0.118257 0.115752 0.115258 0.116987 0.115372 0.118165 0.115628 0.116636 0.115546 0.119348 0.115891 0.105775 0.114311 0.11003 0.115583 0.102254 0.113044 0.11271 0.10722 0.114009 0.103286 0.110964 0.100446 0.0932109 0.0893453 0.109167 0.100413 0.102996 0.126297 0.122393 0.116359 0.123576 0.12625 0.123923 0.1249 0.123194 0.116583 0.103702 0.118746 0.114496 0.123997 0.0997485 0.11644 0.11442 0.101255 0.108835 0.117351 0.105179 0.120023 0.0914676 0.0848255 0.0887859 0.103139 0.116798 0.104867 0.0835726 0.085487 0.0955135 0.0915621 0.102433 0.0866304 0.106888 0.12443 0.123739 0.122957 0.124182 0.121731 0.121695 0.124072 0.124151 0.126747 0.114676 0.127047 0.12105 0.122121 0.111295 0.1267 0.120564 0.113363 0.13379 0.131946 0.122648 0.133194 0.118821 0.102452 0.105266 0.123102 0.131764 0.132441 0.100921 0.114307 0.131671 0.131045 0.122156 0.115892 0.134009 0.129283 0.121075 0.140744 0.1214 0.166667 0.166667 0.13087 0.123488 0.156888 0.145772 0.157852 0.140063 0.128667 0.145795 0.158712 0.140691 0.146117 0.166667 0.166667 0.157072 0.166667 0.157801 0.144962 0.145145 0.158433 0.166667 0.166667 0.144679 0.156884 0.166667 0.166667 0.157929 0.157024 0.166667 0.166667 0.166667 0.166667 0.166667 0.125283 0.141845 0.166667 0.150881 0.143796 0.118317 0.119908 0.132928 0.145642 0.139799 0.15698 0.136685 0.15263 0.127338 0.166667 0.166667 0.157819 0.140976 0.166667 0.166667 0.166667 0.15418 0.154998 0.130267 0.130497 0.14375 0.127672 0.143128 0.157378 0.155406 0.141941 0.131817 0.133612 0.156363 0.145297 0.127986 0.129773 0.1459 0.144253 0.130583 0.117951 0.118452 0.119721 0.114945 0.121724 0.125318 0.126251 0.121913 0.120274 0.117632 0.116053 0.122451 0.120349 0.123402 0.124546 0.126069 0.119619 0.104533 0.120149 0.110608 0.11535 0.101889 0.117046 0.113168 0.112471 0.125 0.115898 0.117756 0.11048 0.0908835 0.0967759 0.118397 0.105536 0.109141 0.125924 0.127324 0.116224 0.123439 0.124808 0.12816 0.134194 0.132986 0.121624 0.102309 0.118135 0.120156 0.128089 0.11368 0.127207 0.125576 0.107307 0.106303 0.121904 0.103962 0.118957 0.088949 0.0926562 0.0871554 0.108763 0.126574 0.116358 0.0996388 0.100424 0.0924742 0.0978757 0.114663 0.0931489 0.111935 0.12407 0.126104 0.122027 0.124666 0.122319 0.122372 0.12686 0.129942 0.128416 0.113327 0.127531 0.124267 0.124194 0.119253 0.130385 0.127104 0.116665 0.133343 0.132552 0.122452 0.132089 0.117642 0.106168 0.103739 0.125116 0.133675 0.134855 0.110092 0.119156 0.130999 0.132135 0.126897 0.117702 0.135164 0.129759 0.121302 0.142342 0.12115 0.166667 0.166667 0.129873 0.122533 0.156839 0.145812 0.157623 0.14068 0.12698 0.1463 0.15872 0.14167 0.146422 0.166667 0.166667 0.157381 0.166667 0.157674 0.144911 0.144795 0.158541 0.166667 0.166667 0.145834 0.15702 0.166667 0.166667 0.158262 0.156861 0.166667 0.166667 0.166667 0.166667 0.166667 0.128544 0.143149 0.166667 0.151974 0.144983 0.123405 0.125712 0.135662 0.147307 0.142422 0.157695 0.139562 0.154249 0.131136 0.166667 0.166667 0.158913 0.143644 0.166667 0.166667 0.166667 0.155443 0.156052 0.134959 0.135989 0.146296 0.132772 0.145827 0.158353 0.156421 0.144904 0.137197 0.138713 0.157384 0.14798 0.132997 0.135509 0.148505 0.146993 0.135773 0.128544 0.127681 0.127987 0.123721 0.134257 0.139274 0.138005 0.130939 0.132459 0.126035 0.12759 0.131424 0.132533 0.132946 0.136317 0.134436 0.128781 0.120928 0.135561 0.122604 0.12927 0.115395 0.127206 0.121864 0.126381 0.139591 0.133697 0.128914 0.127146 0.110334 0.118687 0.132069 0.120954 0.126988 0.138182 0.142135 0.130721 0.136527 0.136011 0.14082 0.148027 0.14736 0.137182 0.12015 0.131922 0.136181 0.142479 0.133874 0.142304 0.141065 0.12664 0.121308 0.135942 0.120436 0.131002 0.108759 0.116932 0.107922 0.127173 0.140163 0.133262 0.125209 0.12533 0.110594 0.118924 0.133672 0.116363 0.128214 0.129233 0.136071 0.13126 0.132255 0.123904 0.125564 0.13354 0.14002 0.13461 0.123606 0.132602 0.134512 0.129706 0.131989 0.13625 0.137165 0.128491 0.136185 0.135563 0.128647 0.135456 0.124185 0.120635 0.11567 0.131993 0.136773 0.139081 0.126406 0.129198 0.134461 0.136781 0.134312 0.126141 0.138679 0.12905 0.121165 0.142303 0.123051 0.166667 0.166667 0.12811 0.123098 0.156713 0.146688 0.158121 0.141796 0.127127 0.147006 0.15889 0.142053 0.147525 0.166667 0.166667 0.15786 0.166667 0.158084 0.146403 0.146133 0.158943 0.166667 0.166667 0.148316 0.157609 0.166667 0.166667 0.158767 0.157113 0.166667 0.166667 0.166667 0.166667 0.166667 0.130439 0.137331 0.166667 0.152025 0.145871 0.127323 0.120981 0.102123 0.120586 0.134159 0.158455 0.140489 0.147608 0.119964 0.166667 0.166667 0.133234 0.108265 0.166667 0.166667 0.166667 0.128047 0.150016 0.138341 0.131611 0.147238 0.136429 0.147988 0.15619 0.156837 0.138348 0.117996 0.124376 0.137136 0.125957 0.138067 0.13462 0.120367 0.141056 0.134109 0.139505 0.129323 0.135203 0.131034 0.146073 0.147762 0.139763 0.125285 0.139944 0.133902 0.138157 0.13388 0.139448 0.13235 0.141345 0.12992 0.134076 0.137568 0.145251 0.135291 0.141996 0.13199 0.133669 0.132435 0.137468 0.14769 0.145339 0.130193 0.136829 0.132076 0.1377 0.139189 0.134943 0.141597 0.150606 0.152419 0.145056 0.149718 0.146557 0.148319 0.154605 0.154352 0.148528 0.138996 0.145523 0.148381 0.152189 0.148758 0.152572 0.151394 0.143754 0.136782 0.144733 0.138609 0.142557 0.132768 0.139412 0.132401 0.143653 0.147882 0.145255 0.144678 0.144405 0.131904 0.137553 0.148063 0.138859 0.141661 0.134415 0.142382 0.139989 0.141675 0.125556 0.120026 0.128068 0.141493 0.135569 0.135801 0.137937 0.140666 0.132069 0.139231 0.13167 0.140794 0.138128 0.138765 0.130731 0.135496 0.135973 0.132537 0.135075 0.1312 0.135429 0.120789 0.121822 0.137334 0.131435 0.13874 0.137342 0.131745 0.133891 0.134314 0.126914 0.1114 0.14297 0.120036 0.166667 0.166667 0.0985514 0.0947732 0.152446 0.145513 0.157426 0.13298 0.111792 0.11459 0.135336 0.11349 0.140414 0.166667 0.166667 0.157665 0.166667 0.158114 0.140873 0.14681 0.153129 0.166667 0.166667 0.126468 0.13749 0.166667 0.166667 0.135012 0.150269 0.166667 0.166667 0.166667 0.135624 0.117338 0.166667 0.166667 0.166667 0.148986 0.133649 0.142356 0.153307 0.133927 0.153651 0.166667 0.166667 0.156566 0.142253 0.166667 0.166667 0.166667 0.154927 0.153275 0.116386 0.116738 0.126826 0.130689 0.124183 0.138602 0.121924 0.136532 0.125796 0.137481 0.156958 0.149852 0.13973 0.130252 0.129823 0.15501 0.143655 0.127288 0.12918 0.142756 0.143262 0.129072 0.118451 0.12456 0.122211 0.118832 0.119297 0.121564 0.122023 0.121763 0.117774 0.11369 0.119571 0.120108 0.128752 0.124841 0.120675 0.118457 0.120785 0.117301 0.120886 0.119931 0.124594 0.118523 0.119091 0.120429 0.114714 0.111113 0.104343 0.113829 0.106642 0.116881 0.108044 0.10924 0.113537 0.112701 0.127959 0.133936 0.126456 0.131362 0.120273 0.122004 0.12781 0.118305 0.101398 0.11136 0.109105 0.113191 0.131097 0.12695 0.123145 0.120616 0.125823 0.124688 0.12806 0.122272 0.127674 0.119309 0.107716 0.118104 0.1138 0.112759 0.105439 0.0950673 0.0968521 0.117983 0.109199 0.102381 0.108902 0.114977 0.124231 0.125648 0.127069 0.127168 0.127466 0.123291 0.128679 0.12229 0.110825 0.124985 0.115996 0.119172 0.123646 0.122043 0.132727 0.135534 0.122364 0.123019 0.122554 0.125499 0.13374 0.125748 0.115651 0.121177 0.125988 0.13475 0.133047 0.107735 0.117942 0.131031 0.133089 0.120825 0.123278 0.135738 0.12577 0.140632 0.141895 0.125538 0.158812 0.142159 0.153927 0.145899 0.146442 0.158239 0.145869 0.147105 0.166667 0.166667 0.166667 0.166667 0.140195 0.128002 0.141607 0.152195 0.166667 0.157285 0.147379 0.141733 0.158523 0.166667 0.166667 0.145665 0.157351 0.166667 0.166667 0.157119 0.158568 0.166667 0.166667 0.166667 0.166667 0.153366 0.141767 0.156132 0.139572 0.154688 0.166667 0.166667 0.156104 0.140742 0.166667 0.166667 0.166667 0.15503 0.15359 0.127605 0.127706 0.142444 0.126894 0.141623 0.156452 0.155317 0.138667 0.125902 0.125329 0.154614 0.141504 0.126796 0.12517 0.141261 0.142116 0.124547 0.114972 0.10178 0.114089 0.105743 0.112419 0.107932 0.0967874 0.110135 0.108667 0.0937656 0.0933583 0.102377 0.101575 0.0978693 0.108247 0.110534 0.093723 0.0864219 0.0764683 0.102778 0.086249 0.087416 0.0763598 0.0904937 0.0918576 0.0831169 0.0991009 0.0911741 0.0896099 0.100408 0.0891427 0.0660158 0.0829836 0.0803403 0.0779633 0.0957197 0.0949407 0.0901647 0.104974 0.0843569 0.0680788 0.0821306 0.0791238 0.0878248 0.0763979 0.0544376 0.0572961 0.0884428 0.0771587 0.0675638 0.0697617 0.085643 0.110772 0.117493 0.103824 0.121206 0.104096 0.0906815 0.115277 0.0987452 0.0982005 0.130695 0.130688 0.115548 0.134137 0.115507 0.0923149 0.100478 0.113863 0.129583 0.126812 0.0862123 0.105504 0.129083 0.127225 0.109212 0.109853 0.129716 0.146465 0.158099 0.145086 0.158314 0.144764 0.143393 0.157728 0.144155 0.144819 0.166667 0.166667 0.156968 0.166667 0.157974 0.144001 0.145081 0.157944 0.166667 0.166667 0.142791 0.156301 0.166667 0.166667 0.156741 0.157317 0.166667 0.166667 0.166667 0.166667 0.153246 0.140603 0.155827 0.138089 0.154858 0.166667 0.166667 0.155827 0.139962 0.166667 0.166667 0.166667 0.155372 0.153508 0.123958 0.124981 0.141047 0.12329 0.140189 0.156153 0.154845 0.137689 0.124139 0.12396 0.154841 0.141041 0.123146 0.122824 0.141013 0.140976 0.121852 0.106812 0.0903975 0.105368 0.0906955 0.106536 0.104599 0.0894696 0.10692 0.102131 0.0685619 0.0760298 0.0862489 0.0792909 0.0801697 0.102057 0.101312 0.0806641 0.0749351 0.0642015 0.0993127 0.0778226 0.0590373 0.0540929 0.0834458 0.0784215 0.0629814 0.0731883 0.0705092 0.0569508 0.0751659 0.0686299 0.0486789 0.0693635 0.067286 0.050804 0.0697316 0.077466 0.0580389 0.0832888 0.0467646 0.0343073 0.0431936 0.0527934 0.0759384 0.0623365 0.0308888 0.0326585 0.0602357 0.0538525 0.0499857 0.0358004 0.0659277 0.0964874 0.111155 0.0866801 0.113375 0.0928671 0.0818239 0.111142 0.0916198 0.0849086 0.125933 0.127302 0.106129 0.129825 0.105334 0.0774884 0.0820985 0.106589 0.127114 0.123888 0.0768445 0.0998825 0.124275 0.123483 0.104493 0.101592 0.126212 0.144568 0.157433 0.142782 0.157757 0.143449 0.141868 0.157432 0.143325 0.142787 0.166667 0.166667 0.156536 0.166667 0.156944 0.141428 0.142436 0.157449 0.166667 0.166667 0.141376 0.155383 0.166667 0.166667 0.156542 0.156295 0.166667 0.166667 0.166667 0.166667 0.153957 0.141885 0.156094 0.138528 0.155819 0.166667 0.166667 0.156498 0.142321 0.166667 0.166667 0.166667 0.156658 0.154188 0.123946 0.127102 0.141537 0.123624 0.140766 0.156685 0.155266 0.139112 0.128004 0.127057 0.155839 0.142655 0.123059 0.124323 0.143033 0.1419 0.123692 0.106918 0.0956753 0.104935 0.0897736 0.110201 0.110966 0.100787 0.114074 0.105206 0.0652812 0.084158 0.0849087 0.0767417 0.0782708 0.10529 0.101005 0.0856913 0.0910103 0.0806039 0.105645 0.0881276 0.0547062 0.0621205 0.0942241 0.0829419 0.0708212 0.0705127 0.0779436 0.0524046 0.0721547 0.0766728 0.0711866 0.0866644 0.0851369 0.0598454 0.0649025 0.084397 0.0527959 0.0797982 0.0378786 0.0474816 0.0366701 0.0609119 0.0909529 0.0783692 0.0589494 0.0578599 0.0547265 0.0606196 0.0708797 0.0457678 0.0725959 0.0946826 0.112973 0.0839776 0.11238 0.0968002 0.0912749 0.115769 0.100838 0.0881549 0.124906 0.128135 0.104677 0.128875 0.103054 0.0807656 0.0788869 0.108073 0.129569 0.125881 0.0868536 0.104118 0.123183 0.123768 0.109679 0.102543 0.126857 0.144107 0.157365 0.142362 0.15757 0.144105 0.142372 0.157723 0.144677 0.142785 0.166667 0.166667 0.156625 0.166667 0.156647 0.141019 0.141732 0.157493 0.166667 0.166667 0.142007 0.155213 0.166667 0.166667 0.156959 0.155949 0.166667 0.166667 0.166667 0.166667 0.155368 0.145051 0.157163 0.141515 0.15751 0.166667 0.166667 0.157989 0.146498 0.166667 0.166667 0.166667 0.158408 0.15555 0.12841 0.133303 0.144321 0.12891 0.143636 0.157898 0.156484 0.142851 0.135802 0.13391 0.15706 0.14573 0.127252 0.12956 0.146843 0.144874 0.129887 0.116506 0.113743 0.113992 0.105479 0.121614 0.123787 0.12078 0.126991 0.116808 0.0885599 0.109615 0.10046 0.0981381 0.0941887 0.116393 0.11021 0.105719 0.118073 0.109974 0.118571 0.109695 0.079849 0.0912303 0.115397 0.102179 0.0991203 0.0953011 0.106212 0.0826822 0.0960967 0.105482 0.107086 0.116618 0.115713 0.0941213 0.0877737 0.109051 0.0821212 0.0994331 0.0718877 0.0867795 0.0725582 0.0944417 0.117641 0.108398 0.0989911 0.0979346 0.078934 0.0900589 0.106624 0.0849976 0.0997412 0.108028 0.122723 0.0987419 0.119633 0.113669 0.112588 0.126904 0.119942 0.106384 0.128515 0.133335 0.112873 0.132413 0.110211 0.10004 0.0938511 0.118362 0.136235 0.132493 0.108868 0.11647 0.126127 0.128113 0.122473 0.112661 0.132024 0.145697 0.157848 0.143962 0.157751 0.146764 0.145036 0.158402 0.14772 0.145069 0.166667 0.166667 0.157256 0.166667 0.157111 0.142794 0.143122 0.15827 0.166667 0.166667 0.144827 0.155854 0.166667 0.166667 0.158076 0.156422 0.166667 0.166667 0.166667 0.166667 0.156298 0.140991 0.158734 0.144335 0.152518 0.166667 0.166667 0.137188 0.121947 0.166667 0.166667 0.166667 0.138072 0.150739 0.134949 0.13482 0.147367 0.13596 0.147201 0.156981 0.157662 0.139559 0.123717 0.12352 0.139334 0.127202 0.133373 0.131256 0.124694 0.141453 0.132029 0.129471 0.131065 0.126566 0.125891 0.130737 0.126162 0.132601 0.127008 0.12737 0.118111 0.132838 0.12201 0.124705 0.117419 0.126561 0.124075 0.125934 0.136182 0.130237 0.123106 0.12463 0.111444 0.120011 0.127848 0.122765 0.125871 0.125298 0.133274 0.117767 0.125695 0.132857 0.133125 0.139259 0.137704 0.126448 0.117381 0.13231 0.11723 0.125029 0.110489 0.121443 0.11126 0.12662 0.136143 0.129724 0.127794 0.127102 0.110848 0.119485 0.131609 0.120501 0.125994 0.127071 0.13149 0.121081 0.131245 0.130857 0.127612 0.128727 0.131415 0.126274 0.134287 0.133617 0.1