# vtk DataFile Version 5.1
vtk output
ASCII

DATASET UNSTRUCTURED_GRID
POINTS 4913 float
0.166667 0 0
0.174442 -0.0611366 -0.0556855
0.285691 -0.095972 -0.0929593
0.39239 -0.111516 -0.111859
0.500793 -0.116702 -0.118211
0.609601 -0.110194 -0.115194
0.717894 -0.0919234 -0.102025
0.821478 -0.0557856 -0.0611174
0.833333 0 0
0.166667 0.125 0
0.229 0.0784688 -0.0711618
0.307636 0.04768 -0.102821
0.40277 0.029015 -0.118699
0.500838 0.0238637 -0.122876
0.598774 0.0308676 -0.119933
0.695069 0.0497178 -0.107726
0.783161 0.0809739 -0.0755653
0.833333 0.125 0
0.166667 0.25 0
0.22994 0.22173 -0.0797727
0.315541 0.198822 -0.111508
0.407783 0.182743 -0.128416
0.500828 0.177478 -0.133028
0.593207 0.183774 -0.129672
0.686936 0.199561 -0.116523
0.780471 0.223419 -0.0798406
0.833333 0.25 0
0.166667 0.375 0
0.230281 0.360952 -0.083865
0.316955 0.349686 -0.117544
0.409732 0.340762 -0.134433
0.500108 0.338096 -0.13931
0.590412 0.341513 -0.135698
0.684979 0.350612 -0.121286
0.780899 0.362124 -0.0821028
0.833333 0.375 0
0.166667 0.5 0
0.230555 0.501078 -0.084802
0.317228 0.500118 -0.119357
0.41008 0.500148 -0.136377
0.500353 0.500185 -0.141353
0.59022 0.500084 -0.137655
0.684757 0.500346 -0.123006
0.781046 0.500732 -0.0829681
0.833333 0.5 0
0.166667 0.625 0
0.230942 0.641057 -0.0826386
0.316642 0.651562 -0.117244
0.409673 0.659606 -0.135015
0.501039 0.662163 -0.140393
0.591424 0.659072 -0.136566
0.686067 0.649911 -0.121998
0.781632 0.638879 -0.0821964
0.833333 0.625 0
0.166667 0.75 0
0.231366 0.780048 -0.0781532
0.3151 0.802704 -0.111716
0.407852 0.817648 -0.129817
0.501319 0.822918 -0.135565
0.594291 0.815942 -0.132191
0.688626 0.799712 -0.118156
0.781861 0.777119 -0.080437
0.833333 0.75 0
0.166667 0.875 0
0.229483 0.922607 -0.0721136
0.308904 0.954377 -0.103417
0.40245 0.971286 -0.12062
0.50083 0.975659 -0.126541
0.599098 0.967767 -0.12409
0.695804 0.949252 -0.112062
0.786509 0.917305 -0.0782253
0.833333 0.875 0
0.166667 1 0
0.198917 1.07425 -0.0577873
0.283678 1.09559 -0.094577
0.390782 1.11146 -0.114624
0.500961 1.11534 -0.122837
0.610545 1.10756 -0.120705
0.718592 1.08856 -0.105706
0.814378 1.05629 -0.0726872
0.833333 1 0
0.166667 0 0.125
0.225131 -0.0770199 0.0809238
0.308147 -0.103359 0.0484589
0.404312 -0.117759 0.0284181
0.50268 -0.120462 0.0225584
0.600467 -0.114939 0.0276348
0.693133 -0.1009 0.0441872
0.774662 -0.0749406 0.0744541
0.833333 0 0.125
0.166667 0.125 0.125
0.264002 0.0754873 0.0790569
0.337359 0.0425854 0.0440823
0.417017 0.0272149 0.0267169
0.501811 0.023138 0.0216054
0.586615 0.0282857 0.0248239
0.665548 0.0443521 0.0378681
0.737559 0.0772917 0.0705963
0.833333 0.125 0.125
0.166667 0.25 0.125
0.268315 0.221324 0.0710098
0.346536 0.197731 0.0362309
0.423201 0.183116 0.0183708
0.501888 0.177752 0.0129052
0.580515 0.183754 0.0162862
0.656881 0.198618 0.0304171
0.733671 0.222093 0.0651107
0.833333 0.25 0.125
0.166667 0.375 0.125
0.268979 0.361775 0.0665673
0.348557 0.350135 0.0302513
0.425456 0.340978 0.0126529
0.501492 0.337996 0.00743155
0.578035 0.341702 0.0109036
0.654731 0.350454 0.0253515
0.733114 0.361927 0.0612161
0.833333 0.375 0.125
0.166667 0.5 0.125
0.26896 0.5008 0.0653518
0.348902 0.499944 0.0283247
0.42568 0.500263 0.010681
0.501492 0.500389 0.00552472
0.577706 0.500094 0.0090301
0.654344 0.500017 0.0234503
0.732928 0.500385 0.0599213
0.833333 0.5 0.125
0.166667 0.625 0.125
0.268748 0.639767 0.0668748
0.348688 0.650061 0.0298719
0.425375 0.658646 0.0117982
0.501797 0.661952 0.0061305
0.578501 0.658756 0.00959118
0.655182 0.649552 0.0242432
0.733347 0.638673 0.0609624
0.833333 0.625 0.125
0.166667 0.75 0.125
0.267894 0.779501 0.071161
0.346971 0.801981 0.0354275
0.423715 0.816462 0.016744
0.502154 0.821792 0.01031
0.581123 0.815653 0.0134995
0.65753 0.800601 0.0283587
0.734161 0.778054 0.0639596
0.833333 0.75 0.125
0.166667 0.875 0.125
0.264335 0.924896 0.0775729
0.338874 0.956906 0.0435631
0.417707 0.972229 0.0247876
0.502518 0.976539 0.0176912
0.587188 0.97052 0.0209302
0.66589 0.953884 0.0350708
0.739398 0.922628 0.0667979
0.833333 0.875 0.125
0.166667 1 0.125
0.226248 1.07765 0.0830188
0.310906 1.1038 0.0460835
0.404653 1.11693 0.0260145
0.502574 1.11963 0.0175673
0.599926 1.11394 0.0211186
0.693154 1.09971 0.036302
0.773763 1.07328 0.0685564
0.833333 1 0.125
0.166667 0 0.25
0.230366 -0.0818267 0.223529
0.316898 -0.111832 0.198892
0.408956 -0.126929 0.182566
0.502017 -0.13034 0.175848
0.593386 -0.125671 0.180685
0.685189 -0.110553 0.196284
0.772857 -0.0790151 0.219557
0.833333 0 0.25
0.166667 0.125 0.25
0.268846 0.0694323 0.223876
0.346831 0.0347897 0.198164
0.423059 0.0189337 0.182583
0.501712 0.0141813 0.176189
0.579342 0.0194517 0.18091
0.655141 0.036036 0.194015
0.733218 0.071826 0.218742
0.833333 0.125 0.25
0.166667 0.25 0.25
0.273033 0.216966 0.217774
0.355645 0.192533 0.193148
0.42959 0.177831 0.177459
0.501895 0.1726 0.171018
0.573245 0.178697 0.175922
0.646798 0.193513 0.189079
0.729534 0.218304 0.214916
0.833333 0.25 0.25
0.166667 0.375 0.25
0.273825 0.359284 0.214777
0.357675 0.347072 0.189028
0.431568 0.338316 0.173537
0.501678 0.335895 0.167503
0.571419 0.339447 0.172317
0.645086 0.347821 0.18566
0.72917 0.359665 0.212143
0.833333 0.375 0.25
0.166667 0.5 0.25
0.273706 0.50041 0.213717
0.357852 0.499894 0.187401
0.431752 0.500259 0.171864
0.501865 0.500283 0.165859
0.571338 0.500244 0.170534
0.644737 0.500058 0.184075
0.728956 0.499965 0.211034
0.833333 0.5 0.25
0.166667 0.625 0.25
0.273312 0.64121 0.214449
0.357403 0.652382 0.188349
0.431546 0.661087 0.172291
0.502114 0.664356 0.1659
0.571826 0.661521 0.170707
0.645215 0.652146 0.184475
0.729213 0.640121 0.211381
0.833333 0.625 0.25
0.166667 0.75 0.25
0.272536 0.782495 0.217169
0.355616 0.806754 0.192341
0.429883 0.821496 0.175541
0.502119 0.826934 0.168447
0.573796 0.82121 0.173201
0.647226 0.806076 0.187156
0.729839 0.781413 0.213535
0.833333 0.75 0.25
0.166667 0.875 0.25
0.268895 0.929491 0.221676
0.347408 0.964635 0.197443
0.423827 0.9805 0.18031
0.502223 0.985064 0.172839
0.579633 0.980056 0.177583
0.655291 0.963455 0.191333
0.734009 0.927714 0.215094
0.833333 0.875 0.25
0.166667 1 0.25
0.228525 1.08047 0.222638
0.317027 1.11132 0.196344
0.409662 1.12601 0.178492
0.501991 1.12949 0.170619
0.593692 1.12468 0.176024
0.684973 1.10877 0.1902
0.771186 1.07779 0.214015
0.833333 1 0.25
0.166667 0 0.375
0.229485 -0.0841321 0.364002
0.318799 -0.117036 0.350026
0.411018 -0.133002 0.340584
0.50098 -0.136779 0.337481
0.591012 -0.131918 0.340719
0.683408 -0.116233 0.34892
0.772693 -0.0825097 0.35964
0.833333 0 0.375
0.166667 0.125 0.375
0.268957 0.0659837 0.364298
0.349009 0.0293546 0.349965
0.425182 0.0133529 0.340769
0.500651 0.00878775 0.337399
0.576522 0.0137951 0.340544
0.652614 0.0303551 0.348077
0.73216 0.0674813 0.359835
0.833333 0.125 0.375
0.166667 0.25 0.375
0.272854 0.214531 0.360427
0.357454 0.189006 0.347338
0.431326 0.174275 0.338186
0.501012 0.169278 0.334958
0.570724 0.175075 0.338184
0.644534 0.189828 0.34561
0.728656 0.215344 0.357546
0.833333 0.25 0.375
0.166667 0.375 0.375
0.273506 0.357804 0.358659
0.359288 0.345215 0.345022
0.433022 0.33655 0.33613
0.500927 0.334131 0.333105
0.56927 0.337521 0.336298
0.643121 0.345904 0.343909
0.728361 0.357825 0.355775
0.833333 0.375 0.375
0.166667 0.5 0.375
0.273256 0.500002 0.357779
0.359154 0.499691 0.343825
0.43307 0.499926 0.33478
0.501137 0.49978 0.331613
0.569301 0.49983 0.334851
0.642962 0.499849 0.342742
0.728215 0.499433 0.354851
0.833333 0.5 0.375
0.166667 0.625 0.375
0.273083 0.642097 0.358041
0.358925 0.653773 0.3441
0.432953 0.662184 0.334515
0.501202 0.665476 0.331157
0.569414 0.663012 0.334528
0.643151 0.653715 0.342647
0.728286 0.641105 0.354801
0.833333 0.625 0.375
0.166667 0.75 0.375
0.272475 0.784795 0.359084
0.357206 0.810021 0.345957
0.431275 0.824576 0.335691
0.50102 0.829896 0.331919
0.571124 0.824644 0.335354
0.644893 0.809546 0.34375
0.728783 0.784086 0.355746
0.833333 0.75 0.375
0.166667 0.875 0.375
0.268817 0.933032 0.361449
0.348879 0.969568 0.348401
0.425405 0.985403 0.337881
0.501171 0.989809 0.333947
0.576701 0.985185 0.337289
0.652616 0.968813 0.345569
0.732626 0.931737 0.356029
0.833333 0.875 0.375
0.166667 1 0.375
0.227627 1.0832 0.361332
0.318053 1.11597 0.346587
0.410952 1.13113 0.336746
0.500437 1.13517 0.332682
0.590489 1.13084 0.335917
0.682594 1.11442 0.344476
0.770687 1.08104 0.354396
0.833333 1 0.375
0.166667 0 0.5
0.228598 -0.084277 0.503523
0.318196 -0.118461 0.500727
0.410869 -0.134499 0.500909
0.500499 -0.138699 0.500877
0.589999 -0.134132 0.500875
0.68255 -0.11816 0.50075
0.772687 -0.0842545 0.498819
0.833333 0 0.5
0.166667 0.125 0.5
0.268464 0.0653633 0.503025
0.348529 0.0279813 0.500336
0.424679 0.0118523 0.500743
0.499921 0.0070944 0.500731
0.575462 0.0117746 0.500004
0.651716 0.0283801 0.499353
0.731806 0.0657556 0.498845
0.833333 0.125 0.5
0.166667 0.25 0.5
0.272042 0.213912 0.501347
0.356573 0.18808 0.500442
0.43047 0.173117 0.500744
0.500232 0.167928 0.500536
0.569742 0.173415 0.499882
0.643467 0.188223 0.499455
0.728171 0.214023 0.498697
0.833333 0.25 0.5
0.166667 0.375 0.5
0.272478 0.357357 0.500945
0.358111 0.344483 0.499834
0.431908 0.335605 0.500176
0.49997 0.333068 0.499986
0.568242 0.33636 0.499527
0.642104 0.344882 0.499398
0.727947 0.356854 0.497988
0.833333 0.375 0.5
0.166667 0.5 0.5
0.272238 0.49967 0.50047
0.357873 0.499274 0.499129
0.431804 0.499401 0.499303
0.500085 0.499201 0.499008
0.568316 0.499223 0.498702
0.642117 0.499565 0.49886
0.727907 0.499051 0.497443
0.833333 0.5 0.5
0.166667 0.625 0.5
0.272163 0.641999 0.500095
0.357803 0.653942 0.498683
0.431821 0.662176 0.498462
0.500226 0.66539 0.497923
0.568354 0.663066 0.497728
0.642103 0.65436 0.498049
0.727796 0.64147 0.496897
0.833333 0.625 0.5
0.166667 0.75 0.5
0.271867 0.785078 0.499556
0.356434 0.810588 0.498707
0.430417 0.82501 0.497985
0.500159 0.830343 0.497174
0.569979 0.825499 0.496967
0.643759 0.810812 0.497429
0.728313 0.785122 0.49646
0.833333 0.75 0.5
0.166667 0.875 0.5
0.268347 0.933706 0.499911
0.348297 0.970444 0.498711
[...]
POINT_DATA 4913
SCALARS scalars float 1
LOOKUP_TABLE default
0.166667 0.0963488 0.138296 0.158904 0.166113 0.160155 0.141031 0.0985495 0.166667 0.166667 0.134332 0.140969 0.155157 0.159147 0.154702 0.142442 0.126818 0.166667 0.166667 0.134816 0.1391 0.148623 0.151514 0.149035 0.14177 0.126557 0.166667 0.166667 0.135332 0.137624 0.143006 0.144115 0.143985 0.139759 0.125545 0.166667 0.166667 0.135404 0.136988 0.140817 0.141353 0.141981 0.139238 0.125346 0.166667 0.166667 0.135317 0.137451 0.143628 0.145232 0.144701 0.13997 0.125166 0.166667 0.166667 0.135368 0.139629 0.150026 0.153937 0.150884 0.142123 0.126017 0.166667 0.166667 0.135586 0.143058 0.15676 0.161696 0.157083 0.144943 0.125458 0.166667 0.166667 0.119649 0.138624 0.160658 0.168501 0.16232 0.141429 0.110125 0.166667 0.166667 0.133795 0.141147 0.155095 0.158153 0.15262 0.141228 0.135051 0.166667 0.166667 0.154544 0.144815 0.144869 0.145154 0.144438 0.145699 0.155325 0.166667 0.166667 0.155809 0.141177 0.134784 0.133374 0.134856 0.142328 0.156011 0.166667 0.166667 0.155946 0.138957 0.12777 0.123263 0.127799 0.14003 0.156112 0.166667 0.166667 0.155831 0.138303 0.12505 0.119485 0.125243 0.139508 0.156269 0.166667 0.166667 0.155757 0.139344 0.128391 0.124493 0.128922 0.140518 0.156055 0.166667 0.166667 0.155524 0.141876 0.13605 0.135324 0.13663 0.143006 0.15604 0.166667 0.166667 0.155413 0.145736 0.146013 0.147756 0.146233 0.146234 0.155061 0.166667 0.166667 0.134323 0.143918 0.156043 0.160812 0.156215 0.145052 0.13713 0.166667 0.166667 0.136009 0.139977 0.147687 0.14997 0.14696 0.138953 0.132678 0.166667 0.166667 0.156403 0.14213 0.134554 0.133161 0.134159 0.141588 0.154618 0.166667 0.166667 0.15506 0.133025 0.115977 0.1106 0.115109 0.132487 0.152957 0.166667 0.166667 0.153742 0.126852 0.101943 0.0913116 0.100844 0.126037 0.151442 0.166667 0.166667 0.153069 0.124703 0.096572 0.0841622 0.0958879 0.124203 0.151153 0.166667 0.166667 0.153372 0.126831 0.102657 0.0928772 0.102219 0.126532 0.151571 0.166667 0.166667 0.154598 0.133042 0.11691 0.112134 0.116579 0.132877 0.152931 0.166667 0.166667 0.156452 0.142425 0.135539 0.134435 0.135422 0.142254 0.154518 0.166667 0.166667 0.133946 0.140581 0.148971 0.151897 0.148315 0.140125 0.134623 0.166667 0.166667 0.134597 0.138038 0.142025 0.141835 0.140473 0.136473 0.132328 0.166667 0.166667 0.155952 0.13992 0.127103 0.122146 0.12611 0.138443 0.154731 0.166667 0.166667 0.152746 0.126617 0.101302 0.0901137 0.0995748 0.12493 0.151401 0.166667 0.166667 0.150388 0.117174 0.0797238 0.058535 0.0775142 0.115049 0.148887 0.166667 0.166667 0.149253 0.113519 0.0706389 0.0434022 0.068661 0.111793 0.148162 0.166667 0.166667 0.150028 0.116822 0.0798768 0.0596822 0.078566 0.115274 0.148971 0.166667 0.166667 0.152358 0.12625 0.101359 0.090777 0.10023 0.124779 0.151367 0.166667 0.166667 0.155674 0.139383 0.126915 0.121934 0.126078 0.138387 0.154432 0.166667 0.166667 0.132823 0.13743 0.141251 0.141638 0.140846 0.136262 0.13369 0.166667 0.166667 0.133595 0.13669 0.139203 0.138703 0.138626 0.136058 0.132545 0.166667 0.166667 0.155395 0.138278 0.123576 0.117908 0.123588 0.137824 0.15497 0.166667 0.166667 0.151412 0.123256 0.0948072 0.0820739 0.0944387 0.12315 0.151178 0.166667 0.166667 0.148533 0.112336 0.0692137 0.0419317 0.0686637 0.112022 0.148182 0.166667 0.166667 0.147239 0.107879 0.0568112 0.00127635 0.0567044 0.10789 0.147119 0.166667 0.166667 0.148141 0.111628 0.0679196 0.0404439 0.0682859 0.111837 0.148155 0.166667 0.166667 0.150999 0.122478 0.0932821 0.080393 0.0934696 0.122441 0.150875 0.166667 0.166667 0.154903 0.137017 0.121988 0.115964 0.122115 0.137086 0.154376 0.166667 0.166667 0.132302 0.135483 0.137404 0.137043 0.137592 0.135412 0.13407 0.166667 0.166667 0.133276 0.137314 0.142011 0.142669 0.141897 0.137557 0.13296 0.166667 0.166667 0.155372 0.13923 0.126977 0.123135 0.127793 0.139698 0.155474 0.166667 0.166667 0.151749 0.125174 0.100647 0.0912578 0.101677 0.126397 0.152209 0.166667 0.166667 0.14913 0.115139 0.0781863 0.0592258 0.0795238 0.11652 0.14969 0.166667 0.166667 0.14807 0.111134 0.0674003 0.0413211 0.0694657 0.112806 0.148748 0.166667 0.166667 0.1486 0.114069 0.0757389 0.0560244 0.0780109 0.11604 0.149666 0.166667 0.166667 0.151022 0.123831 0.0977014 0.0877108 0.099397 0.125387 0.151971 0.166667 0.166667 0.154482 0.137265 0.124035 0.119728 0.125338 0.138446 0.154812 0.166667 0.166667 0.13209 0.135521 0.138823 0.139828 0.140315 0.136572 0.135076 0.166667 0.166667 0.134209 0.140752 0.148851 0.152256 0.148959 0.140247 0.133968 0.166667 0.166667 0.15534 0.142633 0.135684 0.134753 0.135712 0.142345 0.15603 0.166667 0.166667 0.153202 0.132716 0.116191 0.111651 0.116538 0.132833 0.154254 0.166667 0.166667 0.151565 0.125778 0.101028 0.09156 0.101631 0.126196 0.152834 0.166667 0.166667 0.150892 0.122999 0.0940576 0.08194 0.0948618 0.123672 0.15233 0.166667 0.166667 0.151009 0.124568 0.0986071 0.0886188 0.0997509 0.125431 0.152795 0.166667 0.166667 0.152491 0.131024 0.112854 0.107825 0.113666 0.13156 0.154071 0.166667 0.166667 0.154316 0.14017 0.131971 0.130583 0.132611 0.1405 0.155079 0.166667 0.166667 0.13238 0.137841 0.145033 0.14792 0.145915 0.138359 0.136118 0.166667 0.166667 0.136414 0.145168 0.156191 0.160597 0.155633 0.143201 0.134378 0.166667 0.166667 0.155711 0.14618 0.145838 0.147301 0.145609 0.145289 0.154817 0.166667 0.166667 0.156041 0.142424 0.135589 0.134201 0.135199 0.141285 0.155037 0.166667 0.166667 0.155743 0.139416 0.12718 0.122701 0.127136 0.138405 0.15511 0.166667 0.166667 0.155686 0.138009 0.122954 0.117043 0.123295 0.137012 0.154961 0.166667 0.166667 0.155409 0.138362 0.12524 0.120413 0.125607 0.137326 0.154934 0.166667 0.166667 0.15526 0.140653 0.132365 0.130416 0.132456 0.139469 0.154699 0.166667 0.166667 0.154716 0.144168 0.142039 0.142473 0.14276 0.142805 0.153165 0.166667 0.166667 0.134217 0.139913 0.150664 0.15587 0.153182 0.139485 0.134187 0.166667 0.166667 0.110174 0.140924 0.161793 0.168038 0.160244 0.137629 0.120535 0.166667 0.166667 0.126172 0.144464 0.156566 0.161125 0.155846 0.141673 0.135452 0.166667 0.166667 0.12633 0.141173 0.149865 0.152928 0.148897 0.138316 0.135256 0.166667 0.166667 0.125057 0.138459 0.143097 0.143666 0.142089 0.135855 0.135158 0.166667 0.166667 0.124901 0.137291 0.139808 0.13923 0.138732 0.13494 0.135092 0.166667 0.166667 0.124948 0.137542 0.141532 0.141654 0.14058 0.13516 0.134804 0.166667 0.166667 0.12593 0.139514 0.146554 0.148889 0.145994 0.136516 0.134009 0.166667 0.166667 0.126509 0.140447 0.152273 0.156657 0.152868 0.138259 0.133534 0.166667 0.166667 0.0995428 0.138605 0.157463 0.163635 0.156501 0.135215 0.0913411 0.166667 0.166667 0.134452 0.113559 0.166667 0.166667 0.136742 0.124494 0.145241 0.154003 0.166667 0.156346 0.166667 0.126885 0.142972 0.142471 0.156569 0.148832 0.161236 0.148531 0.131113 0.114491 0.130623 0.141569 0.134121 0.139338 0.144345 0.140149 0.143966 0.13434 0.144147 0.146058 0.148189 0.145013 0.148735 0.14855 0.147538 0.157235 0.146324 0.148227 0.147618 0.155818 0.153461 0.147584 0.147042 0.150209 0.143962 0.150288 0.160573 0.162567 0.15929 0.162641 0.156409 0.155882 0.151644 0.161366 0.156892 0.156601 0.151213 0.152134 0.145089 0.152045 0.160884 0.16309 0.160207 0.157874 0.156807 0.156333 0.151777 0.156501 0.15365 0.156011 0.1513 0.150397 0.145288 0.149395 0.151348 0.150585 0.150649 0.143182 0.148594 0.150312 0.148278 0.143198 0.145432 0.147342 0.147286 0.146378 0.144711 0.144846 0.133914 0.120939 0.130466 0.118018 0.134 0.142386 0.145374 0.126672 0.14379 0.136413 0.144922 0.14815 0.148531 0.149421 0.142727 0.100462 0.130486 0.166667 0.133048 0.155915 0.160994 0.166667 0.166667 0.141773 0.160317 0.166667 0.160704 0.166667 0.166667 0.166667 0.137595 0.130219 0.145118 0.155367 0.166667 0.156825 0.166667 0.14864 0.159437 0.149123 0.161662 0.153332 0.131169 0.139718 0.133079 0.143206 0.144491 0.143802 0.146901 0.143285 0.147647 0.142542 0.143913 0.151358 0.142177 0.143926 0.14272 0.146377 0.140042 0.143047 0.137075 0.139604 0.152146 0.154858 0.148793 0.146576 0.143234 0.147508 0.13904 0.14337 0.13352 0.139172 0.152692 0.151604 0.149505 0.146998 0.143493 0.146629 0.139341 0.143619 0.133798 0.139237 0.145991 0.14124 0.144974 0.145543 0.14415 0.145179 0.140991 0.144533 0.138067 0.143524 0.132519 0.124601 0.133728 0.145235 0.145071 0.14859 0.148288 0.147981 0.148203 0.154865 0.130142 0.166667 0.132732 0.15879 0.161174 0.166667 0.160892 0.166667 0.161223 0.166667 0.166667 0.166667 0.137333 0.130116 0.145536 0.155241 0.166667 0.15721 0.166667 0.148804 0.159728 0.149372 0.161869 0.153906 0.128978 0.13656 0.131883 0.142245 0.143829 0.141419 0.145215 0.14137 0.146548 0.138453 0.138306 0.144469 0.138136 0.139017 0.138987 0.139311 0.133199 0.137103 0.13224 0.130305 0.144333 0.146774 0.142102 0.138271 0.136212 0.138823 0.128253 0.13565 0.124457 0.127743 0.144923 0.145543 0.142935 0.138774 0.13644 0.140193 0.128576 0.13826 0.124838 0.130465 0.141471 0.138916 0.141374 0.141259 0.140515 0.143194 0.135093 0.142688 0.133617 0.140271 0.131008 0.123517 0.132523 0.144653 0.14447 0.148734 0.147296 0.148067 0.147508 0.1548 0.129058 0.166667 0.132096 0.158936 0.161353 0.166667 0.160674 0.166667 0.161392 0.166667 0.166667 0.166667 0.137571 0.12996 0.146021 0.155295 0.166667 0.157333 0.166667 0.148866 0.159825 0.149475 0.16189 0.153835 0.127751 0.135016 0.131599 0.141626 0.14368 0.140288 0.144415 0.140958 0.146235 0.136832 0.13519 0.140227 0.136707 0.136418 0.137826 0.135045 0.129889 0.13511 0.130637 0.124938 0.139119 0.141327 0.139693 0.133073 0.133697 0.133011 0.121512 0.132808 0.121212 0.1204 0.140154 0.141769 0.140599 0.133699 0.133899 0.136302 0.12226 0.136317 0.121653 0.125566 0.139034 0.137515 0.140264 0.138945 0.139443 0.142141 0.132184 0.142361 0.132219 0.138743 0.129941 0.122605 0.132238 0.144217 0.144443 0.148708 0.146724 0.148158 0.147395 0.154693 0.12844 0.166667 0.132001 0.158906 0.161465 0.166667 0.160647 0.166667 0.16154 0.166667 0.166667 0.166667 0.138112 0.130256 0.146548 0.155394 0.166667 0.157293 0.166667 0.14901 0.159898 0.149587 0.161874 0.153854 0.127884 0.135074 0.132304 0.141715 0.143924 0.140553 0.144647 0.142024 0.146786 0.137057 0.135357 0.140678 0.138652 0.136847 0.139792 0.135729 0.130245 0.1383 0.132841 0.125406 0.13986 0.142011 0.143348 0.134048 0.137622 0.133799 0.122307 0.137093 0.125639 0.121178 0.140998 0.142208 0.144216 0.134605 0.137751 0.136794 0.123084 0.139313 0.126136 0.126139 0.139611 0.137762 0.142145 0.139441 0.141415 0.142364 0.132687 0.143342 0.13438 0.138963 0.130037 0.122469 0.132466 0.144322 0.144751 0.148777 0.146816 0.148182 0.147615 0.154583 0.12814 0.166667 0.131963 0.158968 0.161465 0.166667 0.160563 0.166667 0.161527 0.166667 0.166667 0.166667 0.138883 0.131076 0.147227 0.155445 0.166667 0.157132 0.166667 0.149158 0.159987 0.149656 0.161811 0.154003 0.129463 0.137233 0.13397 0.142483 0.144741 0.142358 0.145807 0.144421 0.147875 0.139175 0.139194 0.145881 0.143299 0.140379 0.144005 0.140997 0.134319 0.144781 0.138057 0.131405 0.146319 0.148764 0.151077 0.140763 0.145448 0.141021 0.130012 0.145716 0.135315 0.129637 0.147608 0.147321 0.152017 0.141331 0.145781 0.141961 0.130899 0.145694 0.135847 0.132266 0.143323 0.139713 0.146541 0.142884 0.145621 0.143952 0.136537 0.145534 0.139362 0.140829 0.131156 0.123091 0.133925 0.145058 0.145722 0.148995 0.147536 0.148491 0.14856 0.154582 0.128414 0.166667 0.132644 0.159008 0.16148 0.166667 0.160553 0.166667 0.161586 0.166667 0.166667 0.166667 0.140367 0.132684 0.147795 0.155526 0.166667 0.156856 0.166667 0.148942 0.160387 0.150362 0.162001 0.15432 0.13189 0.140695 0.135805 0.143551 0.145272 0.145102 0.147457 0.147205 0.14894 0.142773 0.144753 0.152799 0.148576 0.145378 0.148606 0.147906 0.14078 0.151705 0.145069 0.140517 0.154706 0.157336 0.158783 0.149153 0.153599 0.149898 0.141033 0.154523 0.147049 0.141405 0.155867 0.153843 0.159556 0.149818 0.154169 0.148554 0.141716 0.152392 0.147387 0.14116 0.148575 0.142668 0.151274 0.147665 0.150184 0.146284 0.142653 0.147737 0.145927 0.144038 0.132845 0.123802 0.134739 0.145862 0.145783 0.148972 0.148605 0.147932 0.148965 0.154298 0.128727 0.166667 0.131886 0.159112 0.16092 0.166667 0.160395 0.166667 0.16113 0.166667 0.166667 0.166667 0.13985 0.128486 0.132632 0.152871 0.166667 0.135006 0.166667 0.144348 0.159448 0.128978 0.143061 0.148759 0.12883 0.141492 0.124995 0.140116 0.132279 0.146098 0.143928 0.142629 0.136535 0.145452 0.148898 0.158704 0.148932 0.149985 0.151425 0.154776 0.147711 0.158438 0.149292 0.151149 0.162106 0.16491 0.16461 0.157819 0.162608 0.159112 0.153098 0.164522 0.158239 0.154337 0.163385 0.16007 0.165864 0.158867 0.163511 0.156105 0.153932 0.159866 0.158808 0.151905 0.153204 0.144067 0.152183 0.152521 0.153275 0.146774 0.149936 0.144501 0.150194 0.147655 0.131316 0.119349 0.124633 0.143183 0.134862 0.143668 0.14674 0.130658 0.137647 0.149875 0.123693 0.166667 0.116903 0.158069 0.141733 0.166667 0.157121 0.166667 0.144765 0.166667 0.166667 0.138083 0.166667 0.158466 0.166667 0.159576 0.166667 0.131865 0.14821 0.143382 0.157669 0.152842 0.16214 0.150221 0.134317 0.142206 0.146618 0.139462 0.143184 0.135077 0.144421 0.143047 0.148121 0.143477 0.14621 0.143832 0.140569 0.150327 0.146148 0.143246 0.142399 0.139793 0.137339 0.142647 0.153228 0.14685 0.139379 0.153748 0.14729 0.148547 0.142495 0.13937 0.133389 0.1428 0.153049 0.146943 0.139451 0.149772 0.145743 0.148246 0.142381 0.139384 0.133146 0.142234 0.145685 0.144523 0.140377 0.139563 0.144091 0.142405 0.141729 0.143731 0.136797 0.142227 0.13521 0.144802 0.148194 0.135894 0.149425 0.133668 0.143305 0.155149 0.146653 0.149209 0.14157 0.158249 0.161018 0.166667 0.166667 0.141496 0.160503 0.166667 0.160899 0.166667 0.166667 0.159954 0.166667 0.159483 0.166667 0.153505 0.159725 0.151399 0.161891 0.153372 0.144588 0.143835 0.13911 0.144193 0.135575 0.143856 0.136417 0.133809 0.129635 0.132172 0.129432 0.125193 0.12356 0.124975 0.130162 0.123026 0.130623 0.122586 0.122251 0.112038 0.121853 0.13043 0.123084 0.131858 0.122314 0.125176 0.111417 0.124388 0.134532 0.130089 0.139578 0.129186 0.136927 0.122573 0.136378 0.146478 0.145314 0.154759 0.144344 0.153937 0.142571 0.153579 0.1611 0.160938 0.166667 0.160922 0.166667 0.160666 0.166667 0.166667 0.159452 0.166667 0.159456 0.166667 0.15219 0.159515 0.15064 0.161791 0.152005 0.141184 0.141331 0.132908 0.139501 0.130807 0.140459 0.127628 0.123944 0.122196 0.118999 0.116254 0.114376 0.113486 0.107376 0.114635 0.110163 0.114228 0.102005 0.108253 0.0944949 0.0998414 0.114998 0.110349 0.118884 0.10166 0.114814 0.0939347 0.106944 0.125305 0.122756 0.133879 0.116435 0.132351 0.1125 0.128117 0.143789 0.143043 0.153947 0.140024 0.1533 0.139171 0.151546 0.16083 0.160816 0.166667 0.160153 0.166667 0.160385 0.166667 0.166667 0.159242 0.166667 0.159437 0.166667 0.151494 0.159401 0.15043 0.161654 0.151045 0.139483 0.140578 0.129879 0.137175 0.12941 0.139233 0.123388 0.118812 0.119575 0.111417 0.109215 0.110608 0.10988 0.096997 0.105377 0.105367 0.104143 0.0890098 0.103192 0.0879419 0.0857827 0.106109 0.105826 0.111765 0.0892546 0.111318 0.0875252 0.0970747 0.120631 0.12052 0.131097 0.109759 0.131199 0.109181 0.123922 0.142361 0.142524 0.153405 0.137762 0.153194 0.138253 0.150512 0.160627 0.160811 0.166667 0.159927 0.166667 0.160424 0.166667 0.166667 0.159131 0.166667 0.159522 0.166667 0.15146 0.159396 0.150897 0.161676 0.150948 0.139548 0.141515 0.129934 0.137146 0.131213 0.140333 0.123412 0.11906 0.122472 0.111848 0.10931 0.115188 0.113646 0.0974205 0.10623 0.111034 0.104883 0.0896397 0.109479 0.0954604 0.0865121 0.106967 0.111474 0.112289 0.0898838 0.11588 0.0950665 0.0976001 0.121011 0.123518 0.131277 0.110122 0.133021 0.113033 0.124094 0.14241 0.143344 0.153413 0.137847 0.153506 0.1394 0.150459 0.160622 0.16082 0.166667 0.159885 0.166667 0.16061 0.166667 0.166667 0.159178 0.166667 0.159713 0.166667 0.152053 0.159626 0.151893 0.161927 0.151927 0.141371 0.144102 0.133167 0.139689 0.136235 0.143738 0.127839 0.124749 0.130226 0.119978 0.116653 0.12631 0.123789 0.108107 0.116646 0.124302 0.115966 0.103058 0.123894 0.113002 0.101314 0.117283 0.124694 0.12038 0.103441 0.126906 0.112746 0.108425 0.126477 0.131081 0.134332 0.11726 0.137811 0.123237 0.128287 0.143906 0.145717 0.153926 0.140014 0.154384 0.142788 0.15129 0.160738 0.160936 0.166667 0.160111 0.166667 0.161033 0.166667 0.166667 0.159464 0.166667 0.160067 0.166667 0.152987 0.160527 0.154241 0.162508 0.153969 0.14468 0.147413 0.139366 0.144489 0.143725 0.148414 0.136397 0.134744 0.140754 0.133159 0.129785 0.140646 0.137836 0.125614 0.132338 0.140576 0.132249 0.12366 0.140998 0.13429 0.123111 0.132675 0.140757 0.133022 0.123767 0.140773 0.134082 0.125813 0.135819 0.141208 0.139899 0.130211 0.14464 0.137337 0.136637 0.146583 0.148471 0.154961 0.144369 0.156541 0.147215 0.152744 0.161274 0.161203 0.166667 0.160475 0.166667 0.1614 0.166667 0.166667 0.156473 0.166667 0.139784 0.166667 0.148413 0.160161 0.133227 0.143345 0.14959 0.143681 0.134227 0.144968 0.143563 0.140766 0.134916 0.143096 0.145286 0.146864 0.147438 0.142463 0.152188 0.143861 0.143443 0.148563 0.154861 0.149395 0.143632 0.156385 0.149601 0.144227 0.149066 0.155264 0.147605 0.14405 0.151864 0.14952 0.14371 0.146177 0.14772 0.144867 0.143465 0.141319 0.143144 0.143958 0.145318 0.136706 0.150425 0.14442 0.137013 0.134224 0.149012 0.159696 0.143603 0.166667 0.157309 0.166667 0.14418 0.166667 0.166667 0.138676 0.166667 0.159253 0.166667 0.160167 0.166667 0.131982 0.148841 0.142897 0.157804 0.153711 0.162057 0.149677 0.132711 0.141948 0.145505 0.136068 0.141054 0.1333 0.143542 0.139387 0.146945 0.14175 0.140929 0.139047 0.133897 0.14338 0.139076 0.139045 0.138464 0.130227 0.13232 0.136634 0.145241 0.138189 0.128405 0.145055 0.138107 0.141162 0.134852 0.127376 0.123597 0.13432 0.144689 0.137966 0.127702 0.142729 0.138458 0.140531 0.134507 0.129722 0.123208 0.135688 0.140194 0.139351 0.133312 0.136212 0.141428 0.137702 0.137304 0.139709 0.131195 0.139941 0.132142 0.143384 0.146008 0.133765 0.148477 0.132163 0.142432 0.154249 0.145466 0.149295 0.140917 0.158045 0.160723 0.166667 0.166667 0.141418 0.160541 0.166667 0.161211 0.166667 0.166667 0.160187 0.166667 0.159567 0.166667 0.152904 0.159626 0.150237 0.161384 0.152092 0.141892 0.139257 0.133101 0.141516 0.126925 0.139998 0.131674 0.123932 0.116291 0.118642 0.121413 0.107144 0.113025 0.113863 0.114319 0.102034 0.113682 0.108808 0.0996061 0.0935206 0.107011 0.114106 0.101177 0.118083 0.108587 0.106694 0.0926016 0.11303 0.124297 0.116073 0.133185 0.120951 0.127745 0.111249 0.131108 0.143055 0.1399 0.152895 0.141785 0.151104 0.138624 0.152854 0.160841 0.160157 0.166667 0.160947 0.166667 0.160546 0.166667 0.166667 0.159254 0.166667 0.159212 0.166667 0.149953 0.159044 0.148293 0.161005 0.149303 0.135616 0.134491 0.122065 0.13444 0.118184 0.134704 0.11889 0.107301 0.103014 0.0965222 0.102387 0.0881655 0.0978644 0.0881385 0.0878626 0.0788935 0.0856087 0.0777659 0.0742943 0.0650596 0.0736289 0.0877199 0.0781421 0.0958974 0.0773038 0.0880103 0.0639224 0.0873306 0.108181 0.102778 0.122569 0.102151 0.119063 0.095832 0.118661 0.137354 0.135128 0.150441 0.13495 0.149158 0.13325 0.149433 0.160099 0.159697 0.166667 0.15984 0.166667 0.160059 0.166667 0.166667 0.158831 0.166667 0.159045 0.166667 0.148451 0.158738 0.147589 0.160721 0.147633 0.132383 0.132827 0.116308 0.130754 0.115284 0.132568 0.112221 0.0980434 0.0980912 0.0827854 0.0913237 0.0809778 0.0919465 0.0712303 0.0703118 0.0694412 0.0663371 0.0544525 0.0639037 0.0520395 0.0474464 0.0706141 0.0688907 0.0826546 0.0546241 0.0811184 0.0508126 0.0709535 0.0993208 0.0982084 0.117022 0.0913999 0.116408 0.0901747 0.112015 0.134285 0.133689 0.149048 0.13128 0.14858 0.131513 0.147686 0.159674 0.159548 0.166667 0.159462 0.166667 0.160022 0.166667 0.166667 0.158693 0.166667 0.159231 0.166667 0.148293 0.158755 0.14835 0.160901 0.147521 0.132248 0.134433 0.116184 0.130611 0.118296 0.134389 0.112079 0.0981662 0.102968 0.0830942 0.0911757 0.0886207 0.0974845 0.0713589 0.0711311 0.0792771 0.066984 0.0546094 0.0751392 0.0650839 0.0477575 0.0713015 0