# vtk DataFile Version 5.1
vtk output
ASCII

DATASET UNSTRUCTURED_GRID
POINTS 4864 float
0.166667 0 0
0.239316 -0.064128 -0.056835
0.418139 -0.0871264 -0.0849185
0.581693 -0.0855927 -0.0865461
0.752528 -0.0632805 -0.0740743
0.833333 0 0
0.166667 0.166667 0
0.276643 0.121394 -0.0737777
0.424421 0.0996559 -0.0904616
0.575059 0.101209 -0.0917801
0.723194 0.12324 -0.0821286
0.833333 0.166667 0
0.166667 0.333333 0
0.28354 0.314991 -0.0759958
0.429073 0.298963 -0.100212
0.572318 0.299724 -0.100532
0.719551 0.315757 -0.0822656
0.833333 0.333333 0
0.166667 0.5 0
0.284668 0.502649 -0.0762781
0.430185 0.502549 -0.104403
0.573218 0.502722 -0.104442
0.719553 0.503364 -0.0815132
0.833333 0.5 0
0.166667 0.666667 0
0.284183 0.690178 -0.0781427
0.430213 0.706066 -0.103606
0.574361 0.706108 -0.103345
0.720636 0.691158 -0.0826208
0.833333 0.666667 0
0.166667 0.833333 0
0.280312 0.882459 -0.0791155
0.426577 0.906248 -0.0968908
0.577291 0.905401 -0.096026
0.725678 0.883831 -0.0839971
0.833333 0.833333 0
0.166667 1 0
0.234792 1.07397 -0.0700867
0.415522 1.09246 -0.0908622
0.586417 1.08979 -0.0910408
0.767075 1.06778 -0.0717795
0.833333 1 0
0.166667 0 0.2
0.275606 -0.0779398 0.161935
0.426396 -0.0925328 0.140271
0.57457 -0.0920882 0.139062
0.72378 -0.0782443 0.156623
0.833333 0 0.2
0.166667 0.166667 0.2
0.310224 0.118919 0.159677
0.435424 0.0983286 0.139518
0.564665 0.0990647 0.138531
0.689416 0.119154 0.155669
0.833333 0.166667 0.2
0.166667 0.333333 0.2
0.315953 0.312307 0.158599
0.440298 0.298901 0.133854
0.560368 0.299547 0.13324
0.684729 0.313232 0.154636
0.833333 0.333333 0.2
0.166667 0.5 0.2
0.317647 0.500816 0.158198
0.442256 0.502078 0.13043
0.559987 0.502626 0.130104
0.683861 0.501871 0.154579
0.833333 0.5 0.2
0.166667 0.666667 0.2
0.317307 0.689282 0.157001
0.441955 0.705398 0.130534
0.561493 0.705868 0.13016
0.685144 0.690409 0.153081
0.833333 0.666667 0.2
0.166667 0.833333 0.2
0.312911 0.883265 0.155811
0.437369 0.906663 0.133873
0.56616 0.906882 0.133623
0.690992 0.883459 0.150631
0.833333 0.833333 0.2
0.166667 1 0.2
0.277369 1.08074 0.155305
0.426935 1.09771 0.133984
0.576832 1.09709 0.133572
0.731618 1.07935 0.148453
0.833333 1 0.2
0.166667 0 0.4
0.281302 -0.0788238 0.38973
0.428549 -0.102345 0.38005
0.571497 -0.10187 0.380153
0.718508 -0.0786019 0.390482
0.833333 0 0.4
0.166667 0.166667 0.4
0.314557 0.118274 0.388152
0.438802 0.0910326 0.380198
0.560075 0.0915584 0.380276
0.684415 0.118853 0.388594
0.833333 0.166667 0.4
0.166667 0.333333 0.4
0.318674 0.311267 0.387091
0.442762 0.29489 0.378038
0.556386 0.29561 0.378251
0.680707 0.312607 0.387391
0.833333 0.333333 0.4
0.166667 0.5 0.4
0.319907 0.499562 0.386371
0.4443 0.500481 0.375986
0.556178 0.501338 0.376504
0.680184 0.501208 0.387022
0.833333 0.5 0.4
0.166667 0.666667 0.4
0.3196 0.687902 0.385739
0.444161 0.706316 0.375242
0.557504 0.707102 0.375602
0.681173 0.689798 0.386214
0.833333 0.666667 0.4
0.166667 0.833333 0.4
0.315935 0.881516 0.384664
0.440233 0.910651 0.375582
0.561259 0.911233 0.375777
0.685094 0.883018 0.384943
0.833333 0.833333 0.4
0.166667 1 0.4
0.280873 1.07872 0.383726
0.428227 1.10398 0.374882
0.571789 1.10404 0.374868
0.7185 1.08006 0.383801
0.833333 1 0.4
0.166667 0 0.6
0.281609 -0.0798543 0.615347
0.428259 -0.103951 0.624672
0.571686 -0.103711 0.62476
0.718986 -0.0788747 0.615992
0.833333 0 0.6
0.166667 0.166667 0.6
0.314972 0.117275 0.614525
0.438843 0.0891903 0.623916
0.559862 0.0898328 0.624077
0.684188 0.118472 0.615114
0.833333 0.166667 0.6
0.166667 0.333333 0.6
0.318927 0.310448 0.613364
0.442695 0.293316 0.623977
0.556056 0.294116 0.624331
0.680549 0.312186 0.614011
0.833333 0.333333 0.6
0.166667 0.5 0.6
0.319986 0.498962 0.612514
0.444061 0.499075 0.623023
0.555927 0.499905 0.623584
0.680222 0.500649 0.613364
0.833333 0.5 0.6
0.166667 0.666667 0.6
0.31941 0.687494 0.612139
0.443783 0.704765 0.621293
0.557433 0.705509 0.621594
0.681422 0.688987 0.612704
0.833333 0.666667 0.6
0.166667 0.833333 0.6
0.315657 0.881234 0.610956
0.439993 0.9089 0.619278
0.561364 0.909408 0.619486
0.6856 0.882042 0.611613
0.833333 0.833333 0.6
0.166667 1 0.6
0.281337 1.07862 0.608909
0.428415 1.10221 0.619337
0.571642 1.10264 0.619584
0.719029 1.07906 0.609825
0.833333 1 0.6
0.166667 0 0.8
0.269409 -0.0794162 0.849652
0.423892 -0.0971411 0.866307
0.572857 -0.0975865 0.865622
0.721775 -0.0808964 0.844338
0.833333 0 0.8
0.166667 0.166667 0.8
0.309159 0.11669 0.848574
0.433982 0.0935484 0.86611
0.56254 0.0937361 0.865616
0.687057 0.116841 0.844054
0.833333 0.166667 0.8
0.166667 0.333333 0.8
0.31495 0.309896 0.846207
0.438702 0.294546 0.869308
0.558134 0.295042 0.868942
0.682786 0.310919 0.842818
0.833333 0.333333 0.8
0.166667 0.5 0.8
0.316397 0.498252 0.844655
0.440262 0.497775 0.86943
0.557888 0.498437 0.869164
0.682472 0.499523 0.841685
0.833333 0.5 0.8
0.166667 0.666667 0.8
0.315463 0.686825 0.84463
0.439733 0.700851 0.866368
0.559758 0.701519 0.865722
0.684115 0.688067 0.841317
0.833333 0.666667 0.8
0.166667 0.833333 0.8
0.310669 0.880979 0.843548
0.435335 0.901367 0.860924
0.564655 0.902059 0.859942
0.689974 0.881434 0.840181
0.833333 0.833333 0.8
0.166667 1 0.8
0.276094 1.07832 0.84227
0.425322 1.09247 0.860222
0.573816 1.09278 0.859131
0.725111 1.07796 0.837576
0.833333 1 0.8
0.166667 0 1
0.236455 -0.0684816 1.07196
0.413812 -0.0901719 1.09144
0.584137 -0.0924755 1.09047
0.763688 -0.0734145 1.07072
0.833333 0 1
0.166667 0.166667 1
0.274668 0.116644 1.08355
0.422823 0.0950242 1.09623
0.573069 0.0938882 1.09632
0.719725 0.116895 1.07846
0.833333 0.166667 1
0.166667 0.333333 1
0.279314 0.309258 1.08196
0.425866 0.294167 1.10299
0.569688 0.294117 1.10298
0.715337 0.309783 1.07793
0.833333 0.333333 1
0.166667 0.5 1
0.280771 0.496702 1.08074
0.427079 0.4975 1.10405
0.569863 0.497804 1.10394
0.715088 0.497571 1.07615
0.833333 0.5 1
0.166667 0.666667 1
0.280602 0.684291 1.08149
0.427717 0.700693 1.10021
0.570908 0.701548 1.09969
0.716205 0.685381 1.07586
0.833333 0.666667 1
0.166667 0.833333 1
0.277067 0.877067 1.08142
0.425 0.899333 1.09129
0.575817 0.90092 1.08972
0.723831 0.878733 1.07323
0.833333 0.833333 1
0.166667 1 1
0.247813 1.06376 1.07291
0.418516 1.08604 1.08575
0.58247 1.08741 1.08394
0.761663 1.06407 1.0551
0.833333 1 1
0.166667 0 0.0666667
0.166667 0 0.133333
0.191457 -0.027055 0.118778
0.207291 -0.0503217 0.0241397
0.174245 -0.0414408 -0.0410156
0.154345 -0.00725256 -0.013457
0.166667 0.0555556 0
0.166667 0.111111 0
0.166667 0.0555556 0.133333
0.166667 0.111111 0.0666667
0.210402 0.00766475 -0.0484
0.19355 0.0954774 -0.0247179
0.166667 0.0555556 0.0666667
0.200175 0.0333076 0.0437818
0.181369 0.0406447 -0.0206347
0.179867 -0.0183472 0.0498939
0.260441 -0.00880337 -0.0650032
0.271653 0.0550225 -0.0712351
0.235586 0.133691 -0.0589414
0.197236 0.154265 -0.0277792
0.24921 0.0700451 0.0199116
0.210816 0.0315798 0.116332
0.234442 0.00582891 0.0216983
0.20683 0.0934128 0.044416
0.226765 0.0697725 -0.0531561
0.166667 0.0555556 0.2
0.166667 0.111111 0.2
0.220711 0.15076 0.116546
0.254613 0.134238 0.0203696
0.166667 0.166667 0.133333
0.166667 0.166667 0.0666667
0.166667 0.111111 0.133333
0.211236 0.151143 0.0439683
0.21444 0.0918685 0.115513
0.259624 -0.069338 0.0103262
0.270781 -0.0738533 0.0838159
0.287551 -0.0138861 0.0835641
0.288778 0.053947 0.00402112
0.231753 -0.0587691 0.175108
0.194425 -0.028252 0.190177
0.22427 -0.0548439 0.0983666
0.246556 0.00585388 0.0981336
0.276352 -0.0106918 0.00740711
0.252881 0.00520159 0.172416
0.219468 0.0912832 0.186664
0.209602 0.0313624 0.187173
0.256498 0.0695523 0.0978049
0.295457 0.120044 0.00304683
0.305817 0.119132 0.0815439
0.218593 0.151617 0.187548
0.267511 0.132988 0.172191
0.293293 -0.0152024 0.161366
0.304483 0.0518042 0.160399
0.263848 0.133863 0.0968996
0.262809 0.0689986 0.172485
0.297903 0.0527857 0.0823895
0.321698 -0.0833637 0.0752195
0.367849 -0.0860228 -0.00794811
0.360687 -0.0848739 -0.0801496
0.300479 -0.0775809 -0.0713383
0.365319 -0.0241319 -0.0815499
0.319731 0.045626 -0.077492
0.32349 -0.0192473 -0.00175042
0.312229 -0.0183084 -0.0740145
0.313837 -0.0794913 -0.000796765
0.419867 -0.0267492 -0.0861503
0.422319 0.0356836 -0.0879412
0.374113 0.103842 -0.0877687
0.324128 0.111384 -0.0813548
0.378199 0.0387484 -0.0107687
0.331609 -0.0220145 0.0750572
0.372167 -0.0245489 -0.0085255
0.331994 0.0450035 -0.00396664
0.37008 0.0390586 -0.083264
0.346391 0.109949 0.0719765
0.382323 0.104057 -0.0133417
0.338089 0.110769 -0.00624912
0.339719 0.0428748 0.073451
0.421154 -0.0882262 -0.012244
0.424299 -0.0903937 0.0627526
0.426904 -0.0290153 0.0634348
0.426223 0.0361307 -0.0139803
0.376269 -0.0916864 0.14489
0.325296 -0.0862734 0.152792
0.372909 -0.0870703 0.0675352
0.378694 -0.0263888 0.0680448
0.422638 -0.0270724 -0.0124351
0.38228 -0.0295854 0.145504
0.345454 0.0419471 0.152126
0.336982 -0.0237611 0.152592
0.383242 0.0375527 0.0667919
0.429065 0.100553 -0.0164403
0.432936 0.0997868 0.0603995
0.350972 0.108709 0.151196
0.393438 0.101199 0.143559
0.429335 -0.0314961 0.141451
0.432516 0.0325759 0.140995
0.388794 0.103506 0.0646242
0.388398 0.0351661 0.145451
0.429129 0.0348581 0.0623669
0.47522 -0.0917741 0.0617347
0.526404 -0.0893962 -0.0146029
0.527207 -0.0877517 -0.0880529
0.472635 -0.088177 -0.0873517
0.525622 -0.027022 -0.0887256
0.473547 0.0349028 -0.0896572
0.473817 -0.0276829 -0.0141873
0.472607 -0.0275132 -0.0873667
0.47379 -0.0884385 -0.0141699
0.578868 -0.0249971 -0.0880431
0.57639 0.0375422 -0.0898769
0.524886 0.0989171 -0.0934275
0.474254 0.0986513 -0.0926291
0.52406 0.0353503 -0.0166762
0.475877 -0.0299353 0.0617202
0.524423 -0.0276133 -0.0149728
0.475038 0.035067 -0.0158397
0.524747 0.035115 -0.08988
0.477769 0.0985345 0.0588776
0.523426 0.0997164 -0.0193633
0.47631 0.0995623 -0.0184207
0.475883 0.0330761 0.0607249
0.579151 -0.0871314 -0.0138644
0.576525 -0.0896702 0.0614395
0.573438 -0.0281787 0.06198
0.573289 0.0370576 -0.0155711
0.525578 -0.094675 0.1377
0.47572 -0.0946824 0.138515
0.525912 -0.0904258 0.0604066
0.524686 -0.0293354 0.0611719
0.575265 -0.0260415 -0.0142463
[...]
POINT_DATA 4864
SCALARS scalars float 1
LOOKUP_TABLE default
0.166667 0.0942781 0.123009 0.123091 0.108374 0.166667 0.166667 0.115616 0.115196 0.115457 0.120541 0.166667 0.166667 0.114415 0.109859 0.109557 0.116398 0.166667 0.166667 0.113991 0.108708 0.107856 0.114575 0.166667 0.166667 0.117243 0.114888 0.113548 0.117152 0.166667 0.166667 0.122974 0.12414 0.12219 0.123001 0.166667 0.166667 0.107679 0.130562 0.128587 0.104071 0.166667 0.166667 0.115064 0.113255 0.113315 0.117529 0.166667 0.166667 0.126709 0.0978931 0.0979646 0.128263 0.166667 0.166667 0.124905 0.0847627 0.0846705 0.125497 0.166667 0.166667 0.124856 0.081424 0.0805815 0.124719 0.166667 0.166667 0.12697 0.0899216 0.0888662 0.126321 0.166667 0.166667 0.131129 0.105577 0.104692 0.129741 0.166667 0.166667 0.120426 0.120959 0.119901 0.116744 0.166667 0.166667 0.113704 0.108109 0.107628 0.113621 0.166667 0.166667 0.124922 0.0872826 0.0873171 0.125603 0.166667 0.166667 0.121396 0.0615531 0.06163 0.121735 0.166667 0.166667 0.12068 0.0503917 0.0497418 0.120523 0.166667 0.166667 0.122305 0.0643059 0.0635306 0.12184 0.166667 0.166667 0.126482 0.0905147 0.0903101 0.12609 0.166667 0.166667 0.114028 0.110628 0.110684 0.115385 0.166667 0.166667 0.115206 0.110513 0.11032 0.114194 0.166667 0.166667 0.125973 0.0899073 0.0899677 0.126347 0.166667 0.166667 0.121844 0.0632389 0.0637269 0.122115 0.166667 0.166667 0.120642 0.0497219 0.0499863 0.120523 0.166667 0.166667 0.121819 0.0618212 0.0615387 0.121327 0.166667 0.166667 0.125662 0.0876434 0.0875198 0.124879 0.166667 0.166667 0.113471 0.107837 0.108276 0.113591 0.166667 0.166667 0.116575 0.120016 0.12069 0.120951 0.166667 0.166667 0.12951 0.104267 0.105012 0.131071 0.166667 0.166667 0.126087 0.0883507 0.0892859 0.126787 0.166667 0.166667 0.124682 0.0802902 0.0809909 0.124702 0.166667 0.166667 0.125419 0.0845695 0.084578 0.124878 0.166667 0.166667 0.128117 0.0979222 0.0978031 0.126625 0.166667 0.166667 0.117093 0.113218 0.113096 0.114447 0.166667 0.166667 0.105814 0.129163 0.130341 0.108208 0.166667 0.166667 0.122712 0.12212 0.123695 0.122791 0.166667 0.166667 0.116566 0.113178 0.11429 0.117452 0.166667 0.166667 0.114256 0.107546 0.108246 0.114083 0.166667 0.166667 0.115965 0.109402 0.109549 0.114569 0.166667 0.166667 0.120334 0.115387 0.114905 0.115002 0.166667 0.166667 0.108013 0.122883 0.122451 0.0927934 0.166667 0.166667 0.166667 0.128516 0.0990484 0.0712276 0.0890006 0.166667 0.166667 0.166667 0.166667 0.102838 0.13021 0.166667 0.137271 0.117494 0.115898 0.109638 0.115562 0.122544 0.134067 0.131529 0.147115 0.121317 0.143018 0.115169 0.166667 0.166667 0.15577 0.133805 0.166667 0.166667 0.166667 0.147162 0.150083 0.107411 0.113649 0.122329 0.122775 0.117302 0.131213 0.111803 0.128564 0.117175 0.13262 0.154658 0.145535 0.134755 0.123828 0.127039 0.153177 0.141107 0.1233 0.1265 0.139419 0.138904 0.124829 0.115565 0.11899 0.119899 0.110685 0.118421 0.114495 0.116212 0.114061 0.114434 0.120792 0.117988 0.115383 0.113915 0.115089 0.116751 0.116527 0.116734 0.116081 0.115488 0.112789 0.116372 0.116528 0.120242 0.117231 0.112968 0.113197 0.115269 0.114495 0.11609 0.114171 0.116606 0.112315 0.115252 0.116116 0.111038 0.110103 0.104293 0.11335 0.105281 0.108933 0.103473 0.108564 0.108514 0.108163 0.116713 0.121014 0.124464 0.124262 0.121453 0.117871 0.116263 0.120701 0.120028 0.12119 0.118523 0.115715 0.115169 0.113012 0.111902 0.116882 0.112517 0.118015 0.101533 0.109461 0.108793 0.106988 0.120465 0.117305 0.113174 0.113844 0.113599 0.113257 0.116405 0.111752 0.117545 0.108099 0.101309 0.107721 0.107225 0.110556 0.104562 0.0948217 0.0954752 0.109005 0.103553 0.102205 0.101678 0.109043 0.118292 0.118442 0.116638 0.1216 0.118458 0.119294 0.118343 0.120369 0.119567 0.114518 0.119815 0.118731 0.117246 0.119986 0.11577 0.119918 0.116145 0.119345 0.109451 0.119567 0.113789 0.113137 0.113483 0.115628 0.125989 0.12568 0.116662 0.115418 0.117279 0.119104 0.121624 0.118332 0.109357 0.112943 0.119387 0.125858 0.127981 0.105034 0.114904 0.125213 0.12837 0.117249 0.117167 0.128142 0.111211 0.133201 0.0951817 0.0921911 0.113072 0.114362 0.126635 0.10552 0.111984 0.166667 0.166667 0.129217 0.120528 0.151805 0.132161 0.146541 0.132137 0.121582 0.139987 0.153736 0.134096 0.139115 0.166667 0.166667 0.166667 0.166667 0.134363 0.119501 0.130646 0.145981 0.166667 0.1516 0.140724 0.133555 0.153254 0.166667 0.166667 0.141597 0.154687 0.166667 0.166667 0.153328 0.153884 0.166667 0.166667 0.166667 0.166667 0.166667 0.120094 0.137449 0.166667 0.147766 0.136379 0.114765 0.113973 0.123435 0.138369 0.134742 0.154378 0.132955 0.147899 0.120518 0.166667 0.166667 0.155649 0.134593 0.166667 0.166667 0.166667 0.149102 0.152439 0.126553 0.123372 0.139288 0.122494 0.139619 0.154824 0.153582 0.137183 0.122702 0.12539 0.15374 0.140649 0.125309 0.124735 0.13978 0.139875 0.124279 0.112816 0.111108 0.114215 0.111407 0.113469 0.111368 0.110167 0.11009 0.108367 0.113909 0.109578 0.113429 0.110071 0.111519 0.107262 0.112947 0.111456 0.100336 0.104632 0.105332 0.106855 0.10065 0.109901 0.110902 0.101958 0.102921 0.0944471 0.107974 0.0956462 0.0928009 0.0879656 0.101253 0.0972872 0.0962603 0.113176 0.10979 0.105206 0.111843 0.114159 0.112019 0.108863 0.108263 0.103197 0.0970874 0.105983 0.102394 0.10991 0.0898192 0.101438 0.100329 0.093106 0.100983 0.105267 0.0973114 0.108444 0.0894676 0.0827109 0.0885672 0.0937538 0.103372 0.0947423 0.0780974 0.0789024 0.0930869 0.0883909 0.0905484 0.0830913 0.0976655 0.11676 0.112891 0.11198 0.114661 0.118031 0.116873 0.11409 0.111836 0.116699 0.106671 0.118076 0.10967 0.114473 0.101874 0.115712 0.108 0.104539 0.127517 0.124735 0.114948 0.1257 0.112969 0.0973381 0.1009 0.114649 0.123592 0.125709 0.095292 0.10909 0.126631 0.125767 0.112887 0.110143 0.126791 0.129305 0.118311 0.135462 0.119382 0.166667 0.166667 0.130723 0.119523 0.152507 0.139466 0.153163 0.134041 0.129021 0.139431 0.15406 0.13421 0.139889 0.166667 0.166667 0.153135 0.166667 0.154821 0.140675 0.140543 0.154386 0.166667 0.166667 0.140867 0.154714 0.166667 0.166667 0.153827 0.154407 0.166667 0.166667 0.166667 0.166667 0.166667 0.120551 0.137948 0.166667 0.148209 0.137752 0.112817 0.112589 0.123314 0.139143 0.134534 0.154551 0.132737 0.148741 0.120403 0.166667 0.166667 0.155689 0.134924 0.166667 0.166667 0.166667 0.149793 0.152665 0.125327 0.12267 0.139275 0.121288 0.139472 0.154738 0.153696 0.137398 0.122718 0.125438 0.154051 0.140797 0.123782 0.123845 0.140216 0.139709 0.123564 0.108183 0.108915 0.111404 0.107904 0.108793 0.108395 0.109391 0.109635 0.105853 0.110711 0.105113 0.111957 0.107084 0.111148 0.106481 0.11281 0.10943 0.0925443 0.101387 0.0997873 0.101155 0.093055 0.107526 0.106908 0.0982924 0.101741 0.0924731 0.107262 0.0935365 0.0817719 0.0805835 0.100172 0.0922586 0.0911887 0.1078 0.106597 0.0987707 0.106191 0.109278 0.108817 0.107879 0.107429 0.0993901 0.0877546 0.0997597 0.0985277 0.106523 0.0874915 0.100207 0.0991937 0.0868823 0.0931161 0.10172 0.0880205 0.102816 0.0759368 0.0733083 0.0748504 0.0876451 0.10187 0.0923619 0.0734728 0.0739074 0.0821153 0.0807744 0.0879843 0.0733828 0.0926125 0.112923 0.109714 0.107426 0.109975 0.114656 0.114249 0.112552 0.110351 0.114599 0.100669 0.115008 0.106709 0.111568 0.10004 0.114692 0.106802 0.100492 0.125693 0.123269 0.111518 0.123755 0.108534 0.0919707 0.0931282 0.112271 0.122652 0.124914 0.0925471 0.107425 0.124433 0.124267 0.111823 0.106989 0.125515 0.129509 0.117208 0.134759 0.118059 0.166667 0.166667 0.130228 0.11863 0.152251 0.138766 0.153017 0.133551 0.128914 0.139081 0.154036 0.134031 0.139335 0.166667 0.166667 0.153213 0.166667 0.154746 0.139965 0.139701 0.154464 0.166667 0.166667 0.140646 0.154587 0.166667 0.166667 0.153997 0.154238 0.166667 0.166667 0.166667 0.166667 0.166667 0.121143 0.138172 0.166667 0.148529 0.138164 0.113209 0.114378 0.124712 0.139679 0.13532 0.154712 0.133166 0.149392 0.12133 0.166667 0.166667 0.155982 0.136398 0.166667 0.166667 0.166667 0.150508 0.152984 0.125999 0.124464 0.139894 0.122136 0.139915 0.154869 0.15392 0.138447 0.125452 0.127763 0.154477 0.141747 0.124207 0.125082 0.141516 0.140301 0.125102 0.109469 0.111854 0.112681 0.108964 0.110126 0.112366 0.114988 0.114286 0.109382 0.111657 0.106534 0.11483 0.110691 0.115135 0.111918 0.117115 0.111863 0.0934748 0.105557 0.101005 0.102553 0.0937493 0.109954 0.107657 0.101854 0.108209 0.0997077 0.111274 0.099549 0.0821665 0.0852832 0.105911 0.0957132 0.0954607 0.109172 0.110829 0.10033 0.107775 0.110161 0.112308 0.114064 0.113927 0.103352 0.0887037 0.101136 0.102782 0.110432 0.0955583 0.106652 0.106028 0.0912757 0.0934565 0.105306 0.0888048 0.10371 0.0756803 0.0786231 0.0750412 0.0918337 0.107751 0.0990578 0.0835056 0.0835159 0.0818782 0.0849522 0.0956228 0.0782465 0.0963086 0.113201 0.112591 0.108285 0.110626 0.114418 0.115513 0.116346 0.115287 0.116539 0.100999 0.115482 0.109597 0.113563 0.105253 0.118072 0.11162 0.10325 0.125799 0.124451 0.111951 0.12389 0.108552 0.0949238 0.0931451 0.114144 0.124797 0.126865 0.0984329 0.110811 0.124497 0.12522 0.115355 0.108691 0.126552 0.129219 0.117605 0.134958 0.117833 0.166667 0.166667 0.129792 0.119556 0.152238 0.138899 0.152991 0.134222 0.128587 0.139511 0.154328 0.135114 0.139764 0.166667 0.166667 0.153428 0.166667 0.154775 0.140095 0.139707 0.154752 0.166667 0.166667 0.141466 0.154702 0.166667 0.166667 0.154259 0.154234 0.166667 0.166667 0.166667 0.166667 0.166667 0.123223 0.13841 0.166667 0.149055 0.138629 0.117448 0.119544 0.127428 0.140337 0.137004 0.155132 0.134806 0.150282 0.123723 0.166667 0.166667 0.156618 0.13864 0.166667 0.166667 0.166667 0.15118 0.153491 0.128907 0.128531 0.141436 0.125693 0.141372 0.155181 0.154351 0.140308 0.1299 0.131632 0.154605 0.143051 0.127384 0.128887 0.143136 0.141826 0.128696 0.117006 0.119243 0.118277 0.115175 0.1182 0.121648 0.124236 0.122196 0.117793 0.116948 0.113965 0.121256 0.119661 0.122218 0.120936 0.123831 0.118261 0.103153 0.115522 0.108819 0.111066 0.102363 0.116784 0.113274 0.111452 0.118905 0.11271 0.119164 0.111583 0.0941558 0.0998642 0.116337 0.10643 0.107465 0.117507 0.121105 0.109559 0.116556 0.117658 0.120957 0.124195 0.12456 0.113544 0.0996996 0.109886 0.113606 0.120274 0.110247 0.117567 0.117681 0.10457 0.102563 0.114518 0.0995785 0.111396 0.0894079 0.0960796 0.0892828 0.104849 0.117916 0.111664 0.10292 0.102767 0.0934669 0.0993552 0.110238 0.0955217 0.107632 0.118681 0.120798 0.114983 0.117513 0.118218 0.120359 0.124012 0.12424 0.122428 0.108177 0.120267 0.117591 0.120249 0.115267 0.124085 0.120229 0.112188 0.128618 0.128397 0.116882 0.126954 0.113595 0.105637 0.10168 0.119984 0.128788 0.130284 0.110572 0.118241 0.127202 0.128653 0.121739 0.115211 0.129653 0.129198 0.119247 0.136418 0.119432 0.166667 0.166667 0.127144 0.120634 0.151874 0.139916 0.153186 0.135648 0.127571 0.139687 0.154816 0.136128 0.140913 0.166667 0.166667 0.153747 0.166667 0.155141 0.14094 0.140765 0.155314 0.166667 0.166667 0.143123 0.154815 0.166667 0.166667 0.154065 0.154407 0.166667 0.166667 0.166667 0.166667 0.166667 0.123874 0.127974 0.166667 0.147514 0.137009 0.122428 0.117442 0.0956033 0.113285 0.129285 0.156003 0.134718 0.142873 0.113982 0.166667 0.166667 0.130641 0.107519 0.166667 0.166667 0.166667 0.122664 0.146974 0.131631 0.125359 0.141703 0.128535 0.141847 0.151508 0.153805 0.132602 0.114743 0.119197 0.134698 0.121429 0.130839 0.127557 0.1178 0.134755 0.126683 0.126224 0.121758 0.124582 0.122651 0.127251 0.129598 0.127516 0.118638 0.125708 0.12328 0.123059 0.124422 0.126519 0.123464 0.128054 0.121659 0.123414 0.116856 0.125851 0.119509 0.122047 0.115643 0.122423 0.121455 0.12195 0.129083 0.125589 0.120839 0.121785 0.111248 0.116782 0.124383 0.118959 0.121293 0.127258 0.130605 0.121751 0.127159 0.125915 0.128288 0.132789 0.133376 0.124954 0.11536 0.121554 0.125615 0.12962 0.125916 0.12971 0.129234 0.120473 0.115555 0.124232 0.115154 0.121439 0.109402 0.115902 0.109632 0.120345 0.128238 0.125151 0.121609 0.121253 0.110668 0.116158 0.124929 0.115525 0.120858 0.124606 0.127435 0.123313 0.125823 0.120327 0.113667 0.118423 0.127156 0.123819 0.119032 0.125445 0.124691 0.121986 0.124584 0.120948 0.125463 0.122069 0.130785 0.122622 0.123283 0.127726 0.120936 0.119003 0.114911 0.123254 0.109414 0.110525 0.121983 0.120412 0.131504 0.129408 0.119018 0.122857 0.122764 0.12437 0.103612 0.134617 0.116331 0.166667 0.166667 0.0840512 0.0832308 0.140226 0.137945 0.151947 0.120319 0.106057 0.101666 0.129595 0.101771 0.129901 0.166667 0.166667 0.151669 0.166667 0.154861 0.13432 0.141065 0.148769 0.166667 0.166667 0.116893 0.130926 0.166667 0.166667 0.124391 0.146181 0.166667 0.166667 0.166667 0.133297 0.115017 0.166667 0.166667 0.166667 0.146716 0.132973 0.138532 0.149874 0.130423 0.151733 0.166667 0.166667 0.154421 0.139146 0.166667 0.166667 0.166667 0.153238 0.151326 0.112732 0.112279 0.121711 0.125589 0.119197 0.134729 0.116388 0.131515 0.120897 0.133152 0.154703 0.147437 0.1361 0.12513 0.124733 0.153868 0.140935 0.121882 0.124736 0.139149 0.139065 0.123686 0.112851 0.113101 0.113926 0.111826 0.105916 0.113713 0.109 0.113569 0.110508 0.100883 0.111236 0.112155 0.111316 0.109576 0.104497 0.0999701 0.109963 0.110475 0.109782 0.107639 0.106046 0.10726 0.111728 0.112679 0.102723 0.0932483 0.0895483 0.108803 0.0973628 0.103083 0.095606 0.0980202 0.102568 0.0968137 0.108947 0.111601 0.104242 0.109862 0.0976939 0.102208 0.104892 0.0971968 0.0845182 0.0899011 0.089 0.0942507 0.111586 0.109892 0.104848 0.100347 0.107405 0.10711 0.107844 0.101836 0.107055 0.101203 0.0919811 0.100692 0.0944336 0.09349 0.0898373 0.081549 0.0822178 0.102944 0.0956508 0.0846658 0.0923354 0.0979061 0.110992 0.114913 0.110633 0.112135 0.115365 0.108458 0.116732 0.106197 0.0982399 0.113271 0.100922 0.104636 0.115483 0.113992 0.123532 0.127322 0.111316 0.109659 0.111519 0.113952 0.124694 0.11397 0.10295 0.107367 0.114509 0.126776 0.125954 0.0972268 0.109864 0.122071 0.125764 0.110691 0.112893 0.127125 0.117829 0.134775 0.134279 0.119098 0.155319 0.134764 0.149949 0.139674 0.141099 0.15479 0.140304 0.14048 0.166667 0.166667 0.166667 0.166667 0.135372 0.119757 0.134891 0.148204 0.166667 0.152038 0.140535 0.133654 0.15427 0.166667 0.166667 0.141119 0.154684 0.166667 0.166667 0.154225 0.154419 0.166667 0.166667 0.166667 0.166667 0.152185 0.13904 0.154261 0.137314 0.153482 0.166667 0.166667 0.154644 0.139107 0.166667 0.166667 0.166667 0.153927 0.152577 0.123112 0.123178 0.139018 0.122418 0.139081 0.154616 0.154094 0.136718 0.122522 0.121415 0.154104 0.139738 0.122971 0.121627 0.13883 0.139208 0.120589 0.10731 0.0914261 0.107088 0.0944161 0.105872 0.102784 0.0884116 0.104553 0.10275 0.0811829 0.0797455 0.0921114 0.0856953 0.0900458 0.103028 0.105182 0.0855223 0.0747184 0.0666406 0.100136 0.0808578 0.0779259 0.0686077 0.0831348 0.0846449 0.072102 0.0805956 0.0736999 0.074488 0.0812539 0.0730443 0.0554162 0.0675005 0.0662579 0.0645964 0.0818653 0.0800751 0.0743397 0.0873875 0.0711533 0.058398 0.070094 0.0653411 0.0750021 0.0670744 0.0471175 0.0481188 0.078383 0.0692531 0.0559739 0.0589408 0.0741728 0.0966499 0.1076 0.092532 0.110451 0.0918119 0.0831677 0.106387 0.0882704 0.0882614 0.124167 0.12386 0.106721 0.126042 0.107092 0.0845646 0.0906633 0.105618 0.123333 0.121941 0.080586 0.100843 0.12359 0.122351 0.102538 0.103116 0.123612 0.140777 0.1549 0.140163 0.155271 0.13961 0.139603 0.154741 0.139589 0.140153 0.166667 0.166667 0.154231 0.166667 0.154917 0.139891 0.140184 0.155006 0.166667 0.166667 0.139867 0.154549 0.166667 0.166667 0.154395 0.154678 0.166667 0.166667 0.166667 0.166667 0.152449 0.138772 0.154338 0.136855 0.15387 0.166667 0.166667 0.154731 0.139376 0.166667 0.166667 0.166667 0.1544 0.152733 0.120559 0.12196 0.138472 0.120233 0.138289 0.154458 0.154003 0.136486 0.122148 0.120737 0.154208 0.139462 0.120067 0.119733 0.138958 0.138519 0.118812 0.10186 0.0844593 0.100725 0.0839215 0.102506 0.10071 0.0848693 0.103196 0.0981598 0.0612532 0.0689209 0.0798925 0.0697743 0.0759859 0.098277 0.0982405 0.0761905 0.0686399 0.0578715 0.0976654 0.0748396 0.0543943 0.0502837 0.0783914 0.0743091 0.0568105 0.0611298 0.0593593 0.048321 0.0621323 0.0587232 0.0427425 0.0592078 0.058212 0.043459 0.0620113 0.0689922 0.0483045 0.0720349 0.0388167 0.0304543 0.037365 0.0447125 0.0684572 0.0577351 0.0281486 0.028541 0.0549243 0.0505306 0.0431018 0.0305465 0.0594132 0.0865623 0.103733 0.0799868 0.105017 0.0845406 0.0777624 0.104247 0.0843264 0.0789955 0.1212 0.122101 0.100246 0.123374 0.0996948 0.0739226 0.0765313 0.100885 0.122238 0.120532 0.0742584 0.0975772 0.120253 0.119932 0.099853 0.0975673 0.121387 0.139855 0.15462 0.139035 0.154978 0.139072 0.138905 0.15462 0.139348 0.13915 0.166667 0.166667 0.154181 0.166667 0.154709 0.138784 0.138861 0.154932 0.166667 0.166667 0.1394 0.154323 0.166667 0.166667 0.15444 0.154373 0.166667 0.166667 0.166667 0.166667 0.152818 0.139338 0.154462 0.137188 0.154348 0.166667 0.166667 0.154963 0.140449 0.166667 0.166667 0.166667 0.154977 0.153012 0.120771 0.123244 0.138889 0.120653 0.13852 0.15458 0.154145 0.137346 0.124321 0.122682 0.15454 0.14017 0.119961 0.120527 0.14005 0.138906 0.119962 0.102271 0.0879239 0.100649 0.0839194 0.104889 0.104776 0.0917192 0.107548 0.100219 0.0592729 0.0742065 0.0792861 0.069017 0.0746394 0.100239 0.0979146 0.0798217 0.0789668 0.0701241 0.101762 0.0824156 0.0512653 0.0564618 0.0859621 0.0776382 0.0626225 0.0601505 0.0651928 0.0454338 0.0609289 0.064846 0.059753 0.0715831 0.0710224 0.050707 0.0592077 0.0736404 0.0450573 0.0706825 0.0322918 0.0403169 0.0318549 0.0515089 0.0783622 0.0695548 0.0504961 0.0500397 0.0509535 0.0559617 0.0594682 0.0393754 0.0643599 0.0861123 0.105317 0.0785631 0.104765 0.0875653 0.0849434 0.107676 0.0908891 0.0817824 0.120778 0.122813 0.0996563 0.123163 0.0985893 0.076761 0.0745739 0.10236 0.123969 0.122141 0.0818349 0.10106 0.119864 0.120469 0.103731 0.0987567 0.122014 0.139834 0.154629 0.138917 0.154869 0.139629 0.139297 0.154858 0.140291 0.139353 0.166667 0.166667 0.154332 0.166667 0.154629 0.13874 0.138656 0.155112 0.166667 0.166667 0.140025 0.15436 0.166667 0.166667 0.154723 0.15429 0.166667 0.166667 0.166667 0.166667 0.153407 0.140715 0.154868 0.138595 0.155034 0.166667 0.166667 0.155074 0.142004 0.166667 0.166667 0.166667 0.155419 0.153412 0.123606 0.126992 0.140381 0.123844 0.139868 0.154856 0.154536 0.139154 0.128862 0.127122 0.15469 0.141499 0.122883 0.124326 0.141626 0.140386 0.123933 0.108477 0.100517 0.106762 0.0944439 0.112431 0.114069 0.106247 0.116359 0.108451 0.077056 0.0926412 0.0906435 0.0840246 0.0864524 0.108403 0.104273 0.0947554 0.0996326 0.0944956 0.111371 0.0997 0.0717509 0.0811537 0.102499 0.0927655 0.0851589 0.0786873 0.0873426 0.0692411 0.0790949 0.0871798 0.0899588 0.0960426 0.0957867 0.0788929 0.0768242 0.0920047 0.068817 0.0849293 0.0616917 0.0740248 0.0619081 0.0793131 0.0990833 0.0939994 0.0852747 0.084933 0.0711423 0.0807652 0.0895618 0.0731442 0.0861041 0.0960789 0.112685 0.0896709 0.110364 0.100301 0.101718 0.116132 0.105696 0.0960267 0.123636 0.126562 0.10583 0.125939 0.104439 0.0922266 0.0864045 0.110325 0.128749 0.126888 0.0996476 0.110834 0.122389 0.123999 0.113391 0.106751 0.125915 0.141062 0.15476 0.139947 0.154956 0.141463 0.140682 0.155057 0.142062 0.140829 0.166667 0.166667 0.154735 0.166667 0.154989 0.13997 0.139726 0.155657 0.166667 0.166667 0.141819 0.154439 0.166667 0.166667 0.155119 0.154548 0.166667 0.166667 0.166667 0.166667 0.152892 0.135285 0.155488 0.138894 0.149179 0.166667 0.166667 0.133832 0.118535 0.166667 0.166667 0.166667 0.134455 0.147643 0.127616 0.126558 0.141107 0.127848 0.14056 0.151735 0.154129 0.132932 0.117076 0.115176 0.135364 0.119549 0.126539 0.122791 0.118942 0.133691 0.123181 0.118015 0.115558 0.116132 0.110587 0.11935 0.115577 0.118325 0.116754 0.116227 0.102115 0.113333 0.10801 0.105883 0.105236 0.115248 0.114423 0.111358 0.117881 0.113928 0.112278 0.111613 0.098666 0.105949 0.113629 0.109484 0.10878 0.104101 0.111473 0.0992022 0.104423 0.111207 0.114257 0.118161 0.116647 0.107036 0.101869 0.112856 0.0989482 0.106295 0.0952994 0.104237 0.095538 0.107072 0.1176