# vtk DataFile Version 5.1
vtk output
ASCII

DATASET UNSTRUCTURED_GRID
POINTS 4913 float
0.166667 0 0
0.180359 -0.0519966 -0.0475387
0.287348 -0.0812972 -0.0785684
0.392565 -0.0956194 -0.0936126
0.499672 -0.0997562 -0.0992971
0.60754 -0.0937153 -0.0956616
0.711517 -0.0788128 -0.0832896
0.810463 -0.0505752 -0.0508365
0.833333 0 0
0.166667 0.125 0
0.22839 0.0889598 -0.0566676
0.309302 0.0599978 -0.0858285
0.403315 0.0437861 -0.099387
0.500201 0.0390679 -0.104096
0.597451 0.0455919 -0.0998434
0.691701 0.0621312 -0.0877832
0.777853 0.0890594 -0.0618428
0.833333 0.125 0
0.166667 0.25 0
0.232103 0.229458 -0.0579965
0.317544 0.20943 -0.0896204
0.40786 0.194532 -0.106618
0.500322 0.189559 -0.112311
0.593168 0.195714 -0.106291
0.684235 0.210045 -0.0917352
0.773274 0.229698 -0.0620566
0.833333 0.25 0
0.166667 0.375 0
0.232923 0.366512 -0.057112
0.319534 0.356481 -0.090183
0.410064 0.347825 -0.109232
0.50061 0.344545 -0.116174
0.591389 0.347966 -0.109201
0.682016 0.356508 -0.0922218
0.772002 0.366464 -0.0616177
0.833333 0.375 0
0.166667 0.5 0
0.233541 0.500623 -0.0563832
0.319992 0.500752 -0.0897858
0.410202 0.500322 -0.109873
0.500734 0.500188 -0.117376
0.591291 0.500242 -0.109857
0.681437 0.500451 -0.0920275
0.771634 0.500747 -0.0613521
0.833333 0.5 0
0.166667 0.625 0
0.233412 0.635649 -0.0571156
0.319549 0.645293 -0.0902743
0.409983 0.652924 -0.109774
0.500788 0.655553 -0.117044
0.591618 0.652717 -0.109985
0.68217 0.645045 -0.0928695
0.772363 0.635182 -0.0618754
0.833333 0.625 0
0.166667 0.75 0
0.231911 0.77296 -0.0581156
0.317068 0.792111 -0.0904637
0.408294 0.806103 -0.107952
0.500895 0.811426 -0.11403
0.593433 0.805832 -0.108256
0.684573 0.791113 -0.0934886
0.773804 0.771857 -0.0631774
0.833333 0.75 0
0.166667 0.875 0
0.227607 0.912247 -0.0579265
0.309621 0.940996 -0.0873294
0.403197 0.956006 -0.102242
0.500649 0.961401 -0.107159
0.597925 0.955767 -0.102559
0.691569 0.939131 -0.0910072
0.779026 0.910224 -0.0639369
0.833333 0.875 0
0.166667 1 0
0.196207 1.05755 -0.0490171
0.285621 1.08036 -0.0811276
0.392858 1.09478 -0.098408
0.500445 1.10026 -0.103373
0.607471 1.09593 -0.098249
0.712857 1.07948 -0.0846877
0.807453 1.05013 -0.0592085
0.833333 1 0
0.166667 0 0.125
0.22551 -0.0598149 0.0901763
0.308595 -0.0864426 0.0611225
0.403348 -0.100153 0.045201
0.501327 -0.104184 0.039477
0.598731 -0.0981913 0.0449723
0.691449 -0.0844942 0.0606325
0.775412 -0.0597577 0.0869255
0.833333 0 0.125
0.166667 0.125 0.125
0.258272 0.0870095 0.0887617
0.333357 0.0573711 0.0587114
0.414335 0.0426641 0.0437631
0.50111 0.0380335 0.0381524
0.587301 0.0438322 0.0426439
0.667902 0.0587051 0.0557657
0.742771 0.0875123 0.0838685
0.833333 0.125 0.125
0.166667 0.25 0.125
0.261849 0.22782 0.0869188
0.341399 0.207607 0.0562537
0.419932 0.19359 0.0388345
0.501257 0.188592 0.0319531
0.582123 0.194418 0.0375338
0.660551 0.208238 0.0527739
0.739603 0.227863 0.0829456
0.833333 0.25 0.125
0.166667 0.375 0.125
0.262288 0.364874 0.0877619
0.343795 0.35436 0.0565212
0.422548 0.346314 0.0371994
0.501454 0.343364 0.0291825
0.579831 0.346532 0.0355948
0.658133 0.354598 0.0528278
0.738794 0.364776 0.0837699
0.833333 0.375 0.125
0.166667 0.5 0.125
0.262348 0.500219 0.0884928
0.344135 0.500151 0.0571263
0.422854 0.50001 0.0369879
0.501581 0.499972 0.0284552
0.579637 0.49999 0.0351946
0.657705 0.499979 0.0530954
0.738574 0.500407 0.0841733
0.833333 0.5 0.125
0.166667 0.625 0.125
0.262277 0.636013 0.0875801
0.343804 0.645903 0.0559695
0.422573 0.653744 0.0364369
0.501681 0.656341 0.0281325
0.580141 0.65354 0.0343344
0.658377 0.645893 0.0516097
0.738938 0.636349 0.0829494
0.833333 0.625 0.125
0.166667 0.75 0.125
0.261582 0.773304 0.0865727
0.341693 0.792872 0.0552936
0.42031 0.806697 0.0371558
0.501497 0.8116 0.0297905
0.582468 0.806075 0.0349727
0.660936 0.792229 0.0505075
0.739761 0.773211 0.0817324
0.833333 0.75 0.125
0.166667 0.875 0.125
0.258911 0.913636 0.0876845
0.334352 0.942904 0.0574979
0.414682 0.957453 0.0411301
0.501158 0.962285 0.0349617
0.587544 0.956666 0.039546
0.668049 0.941049 0.0530541
0.743724 0.9125 0.0811797
0.833333 0.875 0.125
0.166667 1 0.125
0.225984 1.06042 0.0899917
0.310203 1.08681 0.0588526
0.403207 1.10007 0.0414572
0.500752 1.10433 0.0357444
0.598263 1.09888 0.0410808
0.691507 1.08489 0.054744
0.77481 1.05879 0.0825904
0.833333 1 0.125
0.166667 0 0.25
0.231232 -0.0597517 0.230596
0.31687 -0.0900166 0.210177
0.407725 -0.106711 0.195365
0.500988 -0.112188 0.1893
0.593765 -0.105213 0.194325
0.684002 -0.0887992 0.208532
0.771068 -0.0598871 0.228188
0.833333 0 0.25
0.166667 0.125 0.25
0.262081 0.0862156 0.228969
0.341264 0.0551566 0.208375
0.419556 0.0379244 0.19397
0.500757 0.0318155 0.188343
0.581493 0.0386821 0.193323
0.659464 0.0556826 0.206076
0.738865 0.0867318 0.226214
0.833333 0.125 0.25
0.166667 0.25 0.25
0.264718 0.226636 0.226831
0.347733 0.206072 0.206657
0.424518 0.190827 0.191128
0.50082 0.185298 0.184978
0.576633 0.19173 0.190616
0.653111 0.206579 0.20435
0.7365 0.226729 0.22495
0.833333 0.25 0.25
0.166667 0.375 0.25
0.265162 0.363725 0.227055
0.349761 0.353126 0.206526
0.426674 0.344933 0.190113
0.500793 0.341998 0.183515
0.574627 0.345343 0.189677
0.651284 0.353651 0.204592
0.736038 0.363772 0.225432
0.833333 0.375 0.25
0.166667 0.5 0.25
0.265193 0.499786 0.227263
0.34987 0.499862 0.206798
0.426843 0.499589 0.190015
0.50092 0.499492 0.183152
0.574515 0.499759 0.189643
0.651034 0.499901 0.204924
0.735928 0.499977 0.225806
0.833333 0.5 0.25
0.166667 0.625 0.25
0.265103 0.636114 0.226724
0.349623 0.646405 0.206053
0.426716 0.65449 0.189466
0.501052 0.657383 0.182617
0.574791 0.654618 0.188796
0.651402 0.646572 0.203747
0.736112 0.636376 0.224881
0.833333 0.625 0.25
0.166667 0.75 0.25
0.26445 0.773584 0.226137
0.34776 0.794188 0.205432
0.424586 0.809003 0.189444
0.500835 0.814576 0.183012
0.576868 0.808642 0.188451
0.653538 0.793577 0.202401
0.736781 0.773624 0.22376
0.833333 0.75 0.25
0.166667 0.875 0.25
0.262146 0.913803 0.227169
0.341332 0.945321 0.20676
0.419625 0.962143 0.191684
0.500525 0.967889 0.185704
0.581369 0.96125 0.190453
0.659573 0.944155 0.203461
0.739546 0.912927 0.22313
0.833333 0.875 0.25
0.166667 1 0.25
0.230263 1.05998 0.228367
0.317094 1.08963 0.207004
0.407705 1.10576 0.191462
0.500161 1.1116 0.185447
0.592899 1.10531 0.190858
0.68367 1.08815 0.204215
0.770478 1.0586 0.223353
0.833333 1 0.25
0.166667 0 0.375
0.231749 -0.0588431 0.367674
0.319251 -0.0902577 0.357123
0.409533 -0.109405 0.348472
0.500512 -0.116245 0.344775
0.591757 -0.108227 0.34727
0.681948 -0.0895822 0.355434
0.769739 -0.0595312 0.365054
0.833333 0 0.375
0.166667 0.125 0.375
0.26253 0.0872845 0.365799
0.343656 0.0554836 0.355011
0.421768 0.0363079 0.346943
0.50032 0.0289303 0.343545
0.578932 0.0364799 0.345869
0.657006 0.0554727 0.353392
0.73787 0.0872624 0.363585
0.833333 0.125 0.375
0.166667 0.25 0.375
0.265027 0.226982 0.363772
0.349554 0.206251 0.353728
0.426214 0.189957 0.34542
0.50018 0.183655 0.342
0.574193 0.190514 0.344645
0.650905 0.206652 0.352701
0.735621 0.227099 0.362847
0.833333 0.25 0.375
0.166667 0.375 0.375
0.265332 0.363741 0.363589
0.351211 0.353218 0.3534
0.428026 0.344698 0.344959
0.500166 0.341542 0.341549
0.572519 0.345039 0.344422
0.649451 0.353857 0.353028
0.735245 0.364021 0.363153
0.833333 0.375 0.375
0.166667 0.5 0.375
0.265392 0.499551 0.363516
0.351341 0.499558 0.353302
0.428153 0.499307 0.344738
0.500261 0.499348 0.341323
0.572464 0.499632 0.344433
0.649338 0.49987 0.353195
0.735245 0.499972 0.363382
0.833333 0.5 0.375
0.166667 0.625 0.375
0.265438 0.635595 0.363278
0.351289 0.645737 0.352923
0.428124 0.654166 0.344342
0.500323 0.657294 0.340753
0.572577 0.654261 0.343685
0.649487 0.64615 0.352368
0.735322 0.635867 0.362875
0.833333 0.625 0.375
0.166667 0.75 0.375
0.264897 0.772786 0.363048
0.349653 0.793215 0.352566
0.426208 0.808926 0.343876
0.50009 0.815277 0.340373
0.574339 0.808981 0.343015
0.65127 0.792974 0.351237
0.735783 0.772779 0.362042
0.833333 0.75 0.375
0.166667 0.875 0.375
0.262483 0.9127 0.363743
0.343394 0.944539 0.353267
0.421473 0.96315 0.34463
0.499943 0.970039 0.341028
0.578679 0.962522 0.343415
0.656943 0.94358 0.35133
0.738298 0.912133 0.361275
0.833333 0.875 0.375
0.166667 1 0.375
0.230848 1.05892 0.364812
0.318883 1.08915 0.353598
0.409125 1.10768 0.345083
0.499935 1.11504 0.341248
0.590836 1.10782 0.343619
0.680866 1.08871 0.351906
0.768229 1.05771 0.361362
0.833333 1 0.375
0.166667 0 0.5
0.232077 -0.0582233 0.502048
0.31956 -0.0897367 0.501839
0.409627 -0.109801 0.500965
0.500511 -0.11749 0.500159
0.591385 -0.109051 0.499982
0.681296 -0.0893047 0.500163
0.769366 -0.0589673 0.499777
0.833333 0 0.5
0.166667 0.125 0.5
0.262458 0.0880135 0.50161
0.343905 0.0561797 0.500903
0.422099 0.0361722 0.500394
0.500391 0.0281899 0.499946
0.578507 0.0359162 0.499686
0.656471 0.0556296 0.499364
0.737628 0.0876726 0.499617
0.833333 0.125 0.5
0.166667 0.25 0.5
0.264908 0.227259 0.500243
0.349561 0.206659 0.500342
0.42638 0.189972 0.499745
0.500162 0.183304 0.499535
0.573765 0.190283 0.499638
0.650447 0.20679 0.499499
0.735424 0.227323 0.499628
0.833333 0.25 0.5
0.166667 0.375 0.5
0.265242 0.363834 0.499706
0.351212 0.353358 0.499627
0.428123 0.3447 0.499226
0.500038 0.341374 0.499298
0.572011 0.344992 0.499614
0.649007 0.35397 0.499654
0.735076 0.364207 0.499706
0.833333 0.375 0.5
0.166667 0.5 0.5
0.265282 0.499485 0.499472
0.351355 0.499357 0.499204
0.428293 0.499024 0.498771
0.500162 0.499148 0.498988
0.571982 0.499628 0.499565
0.648904 0.499824 0.499618
0.735087 0.500037 0.499712
0.833333 0.5 0.5
0.166667 0.625 0.5
0.265279 0.635258 0.499521
0.351305 0.645135 0.499159
0.42828 0.653609 0.498699
0.500272 0.656879 0.498607
0.572118 0.653922 0.499046
0.649028 0.645776 0.499119
0.735162 0.635631 0.499385
0.833333 0.625 0.5
0.166667 0.75 0.5
0.264886 0.772029 0.49959
0.349873 0.792176 0.499238
0.42656 0.808269 0.49854
0.500133 0.814932 0.49824
0.57382 0.80859 0.498367
0.650642 0.792365 0.498276
0.73548 0.772154 0.498739
0.833333 0.75 0.5
0.166667 0.875 0.5
0.262608 0.911617 0.499635
[...]
POINT_DATA 4913
SCALARS scalars float 1
LOOKUP_TABLE default
0.166667 0.0896005 0.119068 0.134963 0.140753 0.13505 0.120953 0.0964741 0.166667 0.166667 0.123287 0.122917 0.131435 0.134983 0.130512 0.122708 0.120639 0.166667 0.166667 0.123518 0.119331 0.124595 0.127543 0.123523 0.119737 0.120877 0.166667 0.166667 0.122398 0.115373 0.117896 0.120101 0.117412 0.116054 0.120326 0.166667 0.166667 0.122313 0.113846 0.115374 0.117379 0.114913 0.114761 0.120205 0.166667 0.166667 0.122999 0.115751 0.118548 0.120969 0.118234 0.116737 0.120277 0.166667 0.166667 0.123833 0.12023 0.126133 0.129526 0.125829 0.121289 0.121284 0.166667 0.166667 0.123576 0.124645 0.133457 0.137654 0.133322 0.125735 0.12058 0.166667 0.166667 0.103853 0.11962 0.13779 0.144008 0.138432 0.121936 0.102865 0.166667 0.166667 0.122036 0.122417 0.131157 0.134797 0.129368 0.121287 0.122223 0.166667 0.166667 0.143241 0.126159 0.122172 0.12291 0.121622 0.126208 0.143463 0.166667 0.166667 0.14377 0.121971 0.112363 0.111491 0.112152 0.122318 0.143495 0.166667 0.166667 0.142609 0.117952 0.103888 0.100915 0.104134 0.118594 0.142676 0.166667 0.166667 0.142117 0.116053 0.100181 0.0965578 0.100612 0.116998 0.142405 0.166667 0.166667 0.142711 0.118328 0.10456 0.101825 0.105105 0.119237 0.142864 0.166667 0.166667 0.143786 0.122901 0.113948 0.113409 0.114273 0.123551 0.143876 0.166667 0.166667 0.144282 0.127604 0.124126 0.125407 0.123994 0.127494 0.143388 0.166667 0.166667 0.122776 0.12464 0.133377 0.1373 0.132421 0.124755 0.123666 0.166667 0.166667 0.123418 0.118998 0.124271 0.127561 0.123066 0.118155 0.121919 0.166667 0.166667 0.144006 0.122229 0.112724 0.111739 0.112053 0.122192 0.143398 0.166667 0.166667 0.14354 0.115585 0.097054 0.0917332 0.0962354 0.115572 0.142658 0.166667 0.166667 0.142474 0.110999 0.0846213 0.0742292 0.0839992 0.110737 0.141563 0.166667 0.166667 0.142025 0.108813 0.079285 0.0668559 0.0786876 0.108748 0.14116 0.166667 0.166667 0.142458 0.110969 0.0849029 0.0747681 0.0845228 0.111023 0.141599 0.166667 0.166667 0.143429 0.116172 0.0980154 0.0930493 0.0976926 0.116059 0.142657 0.166667 0.166667 0.144347 0.123111 0.113957 0.112972 0.113528 0.122985 0.143207 0.166667 0.166667 0.123068 0.119929 0.125229 0.128922 0.124974 0.11944 0.122756 0.166667 0.166667 0.122113 0.115159 0.117753 0.120112 0.116564 0.114188 0.121337 0.166667 0.166667 0.142904 0.118337 0.104119 0.101089 0.103955 0.118105 0.142685 0.166667 0.166667 0.142349 0.110804 0.0842792 0.0740996 0.0839131 0.110436 0.14177 0.166667 0.166667 0.141244 0.105758 0.068062 0.0473116 0.0677268 0.105071 0.140685 0.166667 0.166667 0.140862 0.103639 0.0611681 0.0336841 0.0607828 0.102996 0.140237 0.166667 0.166667 0.141324 0.10572 0.0679167 0.0470729 0.0677123 0.105178 0.140624 0.166667 0.166667 0.142244 0.110912 0.0840426 0.0738925 0.0840737 0.110268 0.141663 0.166667 0.166667 0.143002 0.11845 0.104176 0.100928 0.103939 0.117997 0.142319 0.166667 0.166667 0.121567 0.114673 0.11685 0.119886 0.117375 0.114816 0.122135 0.166667 0.166667 0.1219 0.113555 0.115136 0.117491 0.114114 0.112675 0.120978 0.166667 0.166667 0.142356 0.116427 0.100543 0.0968109 0.100487 0.116449 0.142354 0.166667 0.166667 0.141744 0.108586 0.0790147 0.0666983 0.0786843 0.108527 0.141406 0.166667 0.166667 0.140686 0.1035 0.0611614 0.0336338 0.0608974 0.10316 0.14034 0.166667 0.166667 0.140284 0.101361 0.0533161 0.0013329 0.0530215 0.101096 0.139914 0.166667 0.166667 0.140655 0.10329 0.0604889 0.0319105 0.0602817 0.103091 0.140243 0.166667 0.166667 0.141611 0.108416 0.0778192 0.064956 0.0778134 0.108026 0.141274 0.166667 0.166667 0.142397 0.116035 0.0992903 0.0950134 0.0991105 0.115539 0.14163 0.166667 0.166667 0.121189 0.112298 0.113052 0.115865 0.113749 0.112552 0.121595 0.166667 0.166667 0.122354 0.115601 0.11831 0.120892 0.117439 0.114772 0.121263 0.166667 0.166667 0.143042 0.1187 0.104816 0.101934 0.104812 0.118638 0.14288 0.166667 0.166667 0.142176 0.110688 0.08459 0.0744933 0.0842819 0.11084 0.141983 0.166667 0.166667 0.14112 0.105472 0.0677716 0.0468027 0.0676178 0.105428 0.140941 0.166667 0.166667 0.140649 0.103156 0.0602123 0.0315667 0.0601905 0.103217 0.140448 0.166667 0.166667 0.141028 0.105052 0.0665733 0.044554 0.0666067 0.105194 0.140774 0.166667 0.166667 0.141969 0.110165 0.0824929 0.0716011 0.082596 0.110064 0.14185 0.166667 0.166667 0.14267 0.117518 0.102348 0.0987664 0.102288 0.117241 0.142115 0.166667 0.166667 0.121426 0.113547 0.115104 0.118053 0.115983 0.113885 0.12177 0.166667 0.166667 0.122787 0.119928 0.1255 0.129364 0.125315 0.119777 0.122679 0.166667 0.166667 0.143875 0.123396 0.113916 0.11324 0.114023 0.123032 0.144135 0.166667 0.166667 0.143092 0.116182 0.0976082 0.0927429 0.0976642 0.115905 0.143151 0.166667 0.166667 0.141975 0.110991 0.0839375 0.0736139 0.0840346 0.110495 0.142077 0.166667 0.166667 0.14148 0.108584 0.0775571 0.0647068 0.077859 0.108191 0.141588 0.166667 0.166667 0.14179 0.110378 0.0824526 0.0715808 0.0828148 0.110212 0.141997 0.166667 0.166667 0.142734 0.115029 0.0946199 0.0892019 0.095145 0.114686 0.143033 0.166667 0.166667 0.143278 0.121406 0.110421 0.10939 0.110759 0.120962 0.143194 0.166667 0.166667 0.121858 0.11726 0.121527 0.125413 0.122343 0.117513 0.123046 0.166667 0.166667 0.123374 0.124953 0.132649 0.137414 0.133201 0.124331 0.122306 0.166667 0.166667 0.143846 0.12756 0.123939 0.125188 0.123724 0.127177 0.143849 0.166667 0.166667 0.14404 0.123262 0.113692 0.11261 0.113147 0.122319 0.143305 0.166667 0.166667 0.142936 0.118756 0.104012 0.100317 0.103294 0.117502 0.142139 0.166667 0.166667 0.142405 0.11635 0.0990307 0.0943541 0.0984702 0.115044 0.141475 0.166667 0.166667 0.142539 0.117762 0.102279 0.0983732 0.101911 0.116769 0.141883 0.166667 0.166667 0.143226 0.121361 0.110358 0.109053 0.110333 0.120675 0.142976 0.166667 0.166667 0.142965 0.125063 0.119915 0.120706 0.120141 0.1245 0.142194 0.166667 0.166667 0.121482 0.120208 0.127787 0.132736 0.129131 0.120592 0.121569 0.166667 0.166667 0.103133 0.121789 0.138342 0.143783 0.137352 0.118996 0.103718 0.166667 0.166667 0.12107 0.125343 0.132978 0.137174 0.132824 0.123789 0.123357 0.166667 0.166667 0.121532 0.120685 0.125131 0.12866 0.125314 0.1194 0.123475 0.166667 0.166667 0.120381 0.115913 0.117127 0.119559 0.117357 0.114671 0.122486 0.166667 0.166667 0.12022 0.113713 0.113367 0.115415 0.113779 0.112535 0.121686 0.166667 0.166667 0.120208 0.114762 0.115614 0.11784 0.116022 0.113816 0.121673 0.166667 0.166667 0.120603 0.118184 0.121669 0.12526 0.12255 0.117561 0.122617 0.166667 0.166667 0.120138 0.120987 0.128613 0.132792 0.129294 0.120704 0.122013 0.166667 0.166667 0.0964921 0.118677 0.133125 0.138729 0.132929 0.116961 0.0877018 0.166667 0.166667 0.127578 0.103183 0.166667 0.166667 0.129251 0.113617 0.139084 0.1465 0.166667 0.151041 0.166667 0.114332 0.13075 0.137122 0.15096 0.137953 0.15536 0.137235 0.115031 0.101672 0.115263 0.122037 0.11995 0.124195 0.129149 0.12114 0.124527 0.119332 0.128665 0.126517 0.13294 0.125717 0.127314 0.127361 0.126946 0.132955 0.126381 0.126854 0.126018 0.132404 0.129731 0.1265 0.125502 0.126831 0.123225 0.126839 0.135651 0.138189 0.135255 0.13752 0.132918 0.131524 0.127792 0.137035 0.132704 0.132838 0.127595 0.128501 0.122241 0.128788 0.135715 0.137999 0.135246 0.132774 0.13257 0.131504 0.127673 0.132261 0.129511 0.131995 0.127316 0.126533 0.121837 0.126072 0.128335 0.128145 0.127936 0.122804 0.126384 0.127503 0.125776 0.12282 0.125441 0.125267 0.125287 0.126296 0.122862 0.12529 0.11829 0.108289 0.11661 0.112936 0.11979 0.126811 0.129688 0.116738 0.134036 0.119628 0.128961 0.137833 0.132541 0.137668 0.134837 0.104568 0.128823 0.166667 0.132341 0.15037 0.154882 0.166667 0.166667 0.135862 0.153644 0.166667 0.155016 0.166667 0.166667 0.166667 0.133854 0.120944 0.139797 0.150056 0.166667 0.151657 0.166667 0.138178 0.154417 0.138595 0.155821 0.143093 0.118314 0.120824 0.118966 0.129045 0.128864 0.124765 0.13247 0.123312 0.132256 0.124294 0.123396 0.127496 0.121045 0.122887 0.120443 0.123123 0.119719 0.119439 0.116359 0.117448 0.128476 0.130668 0.125137 0.123124 0.119268 0.124106 0.116576 0.119882 0.111179 0.116913 0.128285 0.126896 0.124852 0.123055 0.119215 0.122785 0.116298 0.119119 0.11072 0.116958 0.123829 0.121465 0.121186 0.123282 0.120548 0.125267 0.119869 0.123322 0.115909 0.124858 0.119294 0.119971 0.118837 0.130284 0.129016 0.139274 0.133138 0.137812 0.131564 0.143828 0.129973 0.166667 0.133124 0.153049 0.155193 0.166667 0.155363 0.166667 0.155435 0.166667 0.166667 0.166667 0.134156 0.120498 0.139898 0.150017 0.166667 0.151568 0.166667 0.137616 0.154482 0.137897 0.155568 0.142654 0.115587 0.116136 0.116585 0.12707 0.12668 0.120906 0.130381 0.119587 0.130177 0.119732 0.116822 0.11995 0.115479 0.116867 0.114904 0.115363 0.112744 0.112233 0.110338 0.107864 0.120174 0.122531 0.117747 0.114288 0.111275 0.11518 0.10565 0.111575 0.101386 0.105406 0.120283 0.119821 0.117843 0.114442 0.111479 0.115393 0.105472 0.112548 0.101088 0.107892 0.11805 0.117412 0.116226 0.117648 0.115391 0.121574 0.113187 0.119764 0.110149 0.120692 0.117115 0.119214 0.116907 0.128515 0.127247 0.138825 0.131088 0.137217 0.129639 0.143037 0.129923 0.166667 0.133277 0.153039 0.155188 0.166667 0.155211 0.166667 0.155328 0.166667 0.166667 0.166667 0.134131 0.119904 0.140134 0.149819 0.166667 0.151597 0.166667 0.136981 0.154303 0.137688 0.155455 0.141932 0.114093 0.113329 0.115894 0.125524 0.125907 0.118113 0.128978 0.118122 0.129236 0.116805 0.112684 0.114952 0.113404 0.112687 0.112658 0.109942 0.108214 0.109431 0.107715 0.101403 0.114543 0.116886 0.115008 0.10819 0.108059 0.108855 0.0981783 0.108278 0.0973423 0.0973892 0.11504 0.115165 0.115222 0.108588 0.10835 0.110316 0.0982323 0.109806 0.0970982 0.101833 0.114514 0.114821 0.114427 0.113928 0.113388 0.119008 0.108954 0.118512 0.107679 0.117986 0.115757 0.118734 0.116366 0.127209 0.12669 0.138304 0.129714 0.137102 0.128896 0.142453 0.129881 0.166667 0.133412 0.152926 0.155189 0.166667 0.15507 0.166667 0.155343 0.166667 0.166667 0.166667 0.134392 0.120134 0.140419 0.149854 0.166667 0.151829 0.166667 0.13702 0.154407 0.138241 0.155652 0.141993 0.114279 0.113522 0.11713 0.125579 0.12706 0.118253 0.129108 0.120136 0.130387 0.116977 0.112904 0.11522 0.116074 0.112933 0.115505 0.110206 0.108461 0.112959 0.110753 0.101683 0.114902 0.117234 0.118576 0.108535 0.112008 0.109225 0.0984715 0.112403 0.101999 0.0977386 0.115555 0.115582 0.118829 0.109057 0.112328 0.110716 0.0986014 0.113518 0.101862 0.102198 0.115001 0.11514 0.117188 0.114337 0.116311 0.119299 0.10927 0.12064 0.110857 0.118231 0.115995 0.118734 0.117401 0.127389 0.127828 0.138381 0.129924 0.137575 0.130056 0.142556 0.129864 0.166667 0.133329 0.152985 0.155271 0.166667 0.155121 0.166667 0.155492 0.166667 0.166667 0.166667 0.134558 0.120979 0.140361 0.149999 0.166667 0.152026 0.166667 0.137719 0.154735 0.139197 0.155914 0.142871 0.116198 0.116932 0.119671 0.1273 0.129393 0.121519 0.130957 0.124476 0.13272 0.120373 0.117592 0.120903 0.122257 0.117693 0.121679 0.116361 0.113495 0.120853 0.117357 0.108763 0.121286 0.123567 0.126837 0.115503 0.120725 0.116429 0.106506 0.121434 0.112487 0.106498 0.121951 0.121367 0.127004 0.115959 0.120967 0.116922 0.106706 0.121275 0.112403 0.109243 0.119818 0.118653 0.123366 0.119137 0.122448 0.122665 0.114361 0.12507 0.117487 0.121554 0.117901 0.119277 0.120096 0.129163 0.130239 0.139143 0.131631 0.138504 0.132357 0.143309 0.129841 0.166667 0.133273 0.153118 0.155417 0.166667 0.155302 0.166667 0.155716 0.166667 0.166667 0.166667 0.134242 0.121827 0.139357 0.149944 0.166667 0.151753 0.166667 0.138294 0.155025 0.139466 0.155988 0.143959 0.119012 0.122057 0.121224 0.129564 0.130388 0.126021 0.133492 0.128023 0.134074 0.125308 0.124607 0.129058 0.128362 0.124347 0.127558 0.124797 0.120911 0.128721 0.124746 0.118864 0.130514 0.132623 0.135144 0.125027 0.129746 0.126184 0.118044 0.130633 0.124099 0.118744 0.130955 0.129486 0.135202 0.125352 0.129844 0.125094 0.118149 0.128887 0.123906 0.119107 0.126677 0.123661 0.129529 0.125629 0.128156 0.127045 0.121646 0.12848 0.124608 0.126123 0.120791 0.119891 0.121724 0.131398 0.131036 0.139887 0.133979 0.138216 0.133356 0.143964 0.12932 0.166667 0.131987 0.153162 0.155062 0.166667 0.155294 0.166667 0.155289 0.166667 0.166667 0.166667 0.130496 0.115529 0.122313 0.147048 0.166667 0.12806 0.166667 0.13276 0.152803 0.115741 0.137024 0.137443 0.114654 0.122832 0.108224 0.125418 0.116874 0.126594 0.129312 0.123319 0.121187 0.126884 0.128875 0.135187 0.128978 0.129028 0.13021 0.131815 0.12704 0.135152 0.1285 0.128661 0.137925 0.140009 0.14107 0.13367 0.13814 0.134999 0.129426 0.139495 0.134739 0.130786 0.138238 0.135895 0.141179 0.133874 0.138005 0.132295 0.129365 0.135183 0.134291 0.128526 0.131202 0.124893 0.130583 0.130063 0.130304 0.127297 0.127706 0.124079 0.128171 0.128015 0.118421 0.113972 0.110728 0.127884 0.118342 0.134005 0.130872 0.118208 0.121342 0.138603 0.124099 0.166667 0.115151 0.151192 0.134065 0.166667 0.152487 0.166667 0.137617 0.166667 0.166667 0.133844 0.166667 0.151981 0.166667 0.154403 0.166667 0.1213 0.137532 0.138455 0.152081 0.142955 0.156046 0.138441 0.119037 0.128146 0.132309 0.120384 0.12431 0.118927 0.128402 0.124722 0.132247 0.122844 0.124098 0.122673 0.119794 0.126972 0.123118 0.121012 0.120099 0.117778 0.116339 0.119527 0.129041 0.12322 0.116751 0.129971 0.12396 0.125102 0.119063 0.116727 0.111148 0.120316 0.128537 0.122929 0.116391 0.126069 0.122367 0.124426 0.118735 0.116899 0.110628 0.118815 0.123416 0.122653 0.119593 0.120055 0.12461 0.120041 0.119686 0.124921 0.115678 0.122194 0.11954 0.129502 0.133234 0.123468 0.138971 0.118136 0.128117 0.144413 0.13148 0.13811 0.136023 0.15333 0.155678 0.166667 0.166667 0.136697 0.154199 0.166667 0.155376 0.166667 0.166667 0.155038 0.166667 0.154672 0.166667 0.143942 0.154879 0.142877 0.156029 0.143439 0.131883 0.13086 0.122283 0.130917 0.11949 0.129855 0.119355 0.114985 0.110724 0.111272 0.110673 0.105163 0.105329 0.105053 0.108745 0.101998 0.108784 0.101715 0.101053 0.0926331 0.101397 0.108492 0.10158 0.110682 0.101325 0.104389 0.0918779 0.104328 0.115289 0.110824 0.122716 0.110637 0.119845 0.104412 0.119668 0.133182 0.131617 0.144917 0.131552 0.144128 0.129116 0.144021 0.156133 0.155883 0.166667 0.155873 0.166667 0.155426 0.166667 0.166667 0.154753 0.166667 0.154448 0.166667 0.142959 0.154685 0.14205 0.155792 0.14247 0.129239 0.128501 0.117077 0.127803 0.115062 0.127479 0.113187 0.106372 0.103525 0.0992716 0.100453 0.0947336 0.0971401 0.0902369 0.094377 0.0895261 0.0934918 0.0837919 0.0875413 0.0769327 0.0818312 0.0942379 0.0891848 0.0988294 0.0834394 0.0943521 0.0762329 0.0898193 0.106949 0.103708 0.117576 0.100529 0.115435 0.0962165 0.113573 0.130655 0.129386 0.143995 0.128429 0.143234 0.126603 0.142696 0.155901 0.155736 0.166667 0.155541 0.166667 0.15519 0.166667 0.166667 0.154496 0.166667 0.15439 0.166667 0.14226 0.15451 0.141761 0.155685 0.141733 0.127567 0.127615 0.113857 0.126158 0.113323 0.126427 0.109713 0.101017 0.100521 0.0915589 0.0943359 0.0905681 0.0936815 0.0808089 0.0850402 0.0843697 0.0833474 0.071814 0.0820567 0.0703677 0.0685449 0.0850721 0.0840952 0.0913715 0.0717093 0.0901977 0.069619 0.0807394 0.101921 0.100888 0.114486 0.0946511 0.113816 0.0928152 0.110149 0.129115 0.128646 0.143323 0.126674 0.143008 0.125628 0.141918 0.155736 0.155724 0.166667 0.155341 0.166667 0.155138 0.166667 0.166667 0.15449 0.166667 0.154621 0.166667 0.142271 0.154588 0.142286 0.155835 0.141736 0.127594 0.128782 0.113963 0.126171 0.115429 0.127468 0.109753 0.101223 0.103804 0.091792 0.0944443 0.0951657 0.0971895 0.0808818 0.0853556 0.0898849 0.0836444 0.071913 0.0880784 0.0771551 0.0686506 0.0854449 0.0897323 0.0916538 0.0718595 0.0950163 0.0765671 0.0809454 0.102173 0.104292 0.114689 0.0948244 0.116056 0.0965043 0.110297 0.129255 0.129796 0.143448 0.126783 0.143584 0.126766 0.141943 0.155801 0.155854 0.166667 0.155383 0.166667 0.155314 0.166667 0.166667 0.154698 0.166667 0.15492 0.166667 0.143042 0.154894 0.143331 0.156058 0.142544 0.129399 0.131415 0.117442 0.12808 0.120367 0.130008 0.113461 0.106912 0.111576 0.100015 0.100718 0.106103 0.105725 0.0905271 0.0954155 0.102886 0.0945195 0.0841082 0.102177 0.0932379 0.0823971 0.0955271 0.102851 0.0999353 0.0842161 0.106 0.092884 0.0907622 0.107927 0.112068 0.118265 0.10118 0.121094 0.105211 0.114016 0.131073 0.132356 0.144269 0.128587 0.1447 0.12938 0.14269 0.155974 0.156014 0.166667 0.155612 0.166667 0.155584 0.166667 0.166667 0.154889 0.166667 0.154886 0.166667 0.144011 0.155312 0.144078 0.15626 0.143901 0.132264 0.133358 0.123093 0.13147 0.125855 0.132661 0.119948 0.115973 0.120818 0.112505 0.111268 0.118894 0.117016 0.105596 0.110158 0.117982 0.110218 0.102299 0.118056 0.111904 0.102201 0.110243 0.117809 0.112162 0.10235 0.118593 0.11162 0.105787 0.116774 0.120964 0.123622 0.111631 0.126324 0.116606 0.120397 0.133753 0.134055 0.14538 0.131948 0.145487 0.132061 0.143782 0.156191 0.155801 0.166667 0.155853 0.166667 0.155672 0.166667 0.166667 0.151483 0.166667 0.133966 0.166667 0.138083 0.153348 0.121837 0.138057 0.137972 0.129118 0.119494 0.125844 0.128342 0.121681 0.119449 0.123199 0.124163 0.125309 0.124746 0.120719 0.128651 0.121853 0.120319 0.124787 0.130453 0.125726 0.119811 0.131606 0.125845 0.121139 0.124645 0.130164 0.124238 0.119817 0.127915 0.125615 0.120377 0.124529 0.125347 0.125884 0.121169 0.121832 0.121309 0.12383 0.130415 0.12099 0.139384 0.129268 0.124137 0.118823 0.138564 0.153697 0.137125 0.166667 0.152946 0.166667 0.1385 0.166667 0.166667 0.134385 0.166667 0.152338 0.166667 0.154545 0.166667 0.121099 0.137329 0.138311 0.152085 0.142758 0.15583 0.137551 0.116522 0.126579 0.130273 0.115697 0.120515 0.11662 0.126401 0.120308 0.13017 0.119169 0.11778 0.116698 0.112752 0.119376 0.115411 0.115594 0.114629 0.108188 0.110212 0.112426 0.120989 0.114417 0.105769 0.121638 0.115067 0.117761 0.111082 0.105251 0.101259 0.111998 0.12064 0.114299 0.105455 0.118974 0.115034 0.117241 0.110971 0.107835 0.100991 0.112074 0.117562 0.116967 0.112737 0.115981 0.120953 0.11476 0.114505 0.120708 0.109741 0.118542 0.116967 0.127709 0.13102 0.122131 0.138179 0.115988 0.12635 0.143423 0.129537 0.137516 0.13611 0.153316 0.155511 0.166667 0.166667 0.136915 0.154154 0.166667 0.15538 0.166667 0.166667 0.155012 0.166667 0.154571 0.166667 0.143165 0.154694 0.14203 0.155755 0.142426 0.12949 0.127733 0.116989 0.128549 0.113276 0.127269 0.114864 0.106254 0.100358 0.0991312 0.103203 0.0902964 0.0968002 0.094467 0.0942709 0.0838852 0.0935259 0.0890306 0.0816268 0.0766404 0.0877957 0.0941661 0.0834828 0.0989397 0.0889445 0.0898829 0.0761611 0.094308 0.106809 0.10047 0.117569 0.103556 0.113665 0.096087 0.115155 0.130774 0.128392 0.143808 0.129454 0.142695 0.126683 0.143241 0.156032 0.155613 0.166667 0.155849 0.166667 0.155365 0.166667 0.166667 0.154587 0.166667 0.154331 0.166667 0.141841 0.154424 0.141036 0.155478 0.141254 0.126098 0.125047 0.110364 0.124933 0.107961 0.124619 0.107795 0.0946672 0.0909809 0.0820065 0.0906646 0.0755364 0.0869197 0.0752937 0.072552 0.0645691 0.0698298 0.0641843 0.0599667 0.0538299 0.0600212 0.0726429 0.0642545 0.0819403 0.0642042 0.0754297 0.053281 0.0754366 0.0954703 0.0910825 0.11087 0.0911777 0.108236 0.0860829 0.108124 0.127407 0.125645 0.142505 0.125845 0.141595 0.12392 0.14173 0.15566 0.155384 0.166667 0.155445 0.166667 0.155115 0.166667 0.166667 0.154301 0.166667 0.154274 0.166667 0.141047 0.154212 0.140691 0.15539 0.140456 0.12415 0.124031 0.106577 0.12309 0.105945 0.123582 0.103969 0.0877955 0.0872534 0.0710762 0.0833207 0.0696103 0.0829253 0.0628427 0.0576738 0.0561998 0.0528399 0.0456486 0.0503618 0.0430652 0.0377456 0.0579916 0.0558646 0.0712658 0.0459998 0.0695088 0.0423815 0.063304 0.0889243 0.0874794 0.107158 0.0840471 0.106316 0.0820878 0.104338 0.125538 0.124727 0.141682 0.123891 0.141261 0.12287 0.140883 0.155417 0.155301 0.166667 0.155183 0.166667 0.155022 0.166667 0.166667 0.154276 0.166667 0.154504 0.166667 0.141027 0.154306 0.141201 0.15558 0.140467 0.124098 0.125155 0.106576 0.123091 0.108077 0.124641 0.103937 0.0878811 