# vtk DataFile Version 5.1
vtk output
ASCII

DATASET UNSTRUCTURED_GRID
POINTS 4864 float
0.166667 0 0
0.241217 -0.0615657 -0.0568496
0.414011 -0.100339 -0.102972
0.589027 -0.101231 -0.104962
0.75468 -0.0706834 -0.0800761
0.833333 0 0
0.166667 0.166667 0
0.280638 0.125344 -0.0781078
0.424326 0.0863646 -0.112437
0.578572 0.0861543 -0.116108
0.728316 0.118645 -0.0916848
0.833333 0.166667 0
0.166667 0.333333 0
0.283806 0.318654 -0.0866747
0.428213 0.294446 -0.120227
0.570854 0.293921 -0.124125
0.720806 0.314828 -0.0982054
0.833333 0.333333 0
0.166667 0.5 0
0.285848 0.503845 -0.0880945
0.429787 0.502796 -0.120554
0.568574 0.50069 -0.122814
0.719004 0.49926 -0.0983377
0.833333 0.5 0
0.166667 0.666667 0
0.285501 0.691223 -0.0904624
0.431066 0.71279 -0.123702
0.57423 0.709979 -0.125447
0.723114 0.687452 -0.097651
0.833333 0.666667 0
0.166667 0.833333 0
0.28289 0.885345 -0.085984
0.426338 0.919586 -0.116524
0.580328 0.917689 -0.119647
0.727933 0.881311 -0.0928596
0.833333 0.833333 0
0.166667 1 0
0.235996 1.08108 -0.0687882
0.409671 1.10678 -0.105177
0.59364 1.10469 -0.107806
0.762512 1.07011 -0.0766676
0.833333 1 0
0.166667 0 0.2
0.277936 -0.0824532 0.166642
0.425635 -0.11347 0.126345
0.575791 -0.114116 0.123306
0.720092 -0.084962 0.154158
0.833333 0 0.2
0.166667 0.166667 0.2
0.315037 0.116052 0.157933
0.439345 0.0806158 0.122571
0.562812 0.0804332 0.119824
0.684075 0.113682 0.149296
0.833333 0.166667 0.2
0.166667 0.333333 0.2
0.31891 0.310042 0.153256
0.442108 0.289472 0.119952
0.55801 0.290699 0.117433
0.679706 0.311286 0.144058
0.833333 0.333333 0.2
0.166667 0.5 0.2
0.319372 0.499972 0.153118
0.442333 0.502195 0.121193
0.55745 0.502949 0.120173
0.679299 0.501469 0.145789
0.833333 0.5 0.2
0.166667 0.666667 0.2
0.320645 0.691539 0.150194
0.444354 0.715528 0.115294
0.560713 0.714947 0.114622
0.680977 0.69231 0.144581
0.833333 0.666667 0.2
0.166667 0.833333 0.2
0.317613 0.889519 0.15269
0.440601 0.924746 0.116853
0.565647 0.923248 0.114548
0.684679 0.889872 0.145625
0.833333 0.833333 0.2
0.166667 1 0.2
0.275344 1.09025 0.156295
0.425833 1.11773 0.120453
0.577129 1.1153 0.116456
0.722577 1.08828 0.145007
0.833333 1 0.2
0.166667 0 0.4
0.280999 -0.087095 0.393327
0.427031 -0.119047 0.376027
0.567754 -0.120578 0.374533
0.714617 -0.0914516 0.389183
0.833333 0 0.4
0.166667 0.166667 0.4
0.316951 0.113042 0.385939
0.439277 0.0789295 0.372604
0.556482 0.0788968 0.373474
0.67975 0.110633 0.386474
0.833333 0.166667 0.4
0.166667 0.333333 0.4
0.320194 0.307265 0.382788
0.442534 0.288343 0.371389
0.553462 0.290799 0.374178
0.677318 0.310031 0.384717
0.833333 0.333333 0.4
0.166667 0.5 0.4
0.320862 0.497984 0.382149
0.443777 0.499931 0.370815
0.55444 0.502782 0.37546
0.677917 0.501992 0.386182
0.833333 0.5 0.4
0.166667 0.666667 0.4
0.322056 0.69044 0.38201
0.445542 0.712048 0.367681
0.556852 0.71341 0.371676
0.6793 0.693089 0.386099
0.833333 0.666667 0.4
0.166667 0.833333 0.4
0.319598 0.890183 0.384761
0.442301 0.922866 0.368291
0.560179 0.922483 0.369656
0.682099 0.889621 0.38577
0.833333 0.833333 0.4
0.166667 1 0.4
0.281735 1.08978 0.388229
0.429323 1.12071 0.370714
0.570045 1.11951 0.369279
0.715626 1.09016 0.381887
0.833333 1 0.4
0.166667 0 0.6
0.281823 -0.0906935 0.617893
0.427109 -0.121209 0.628504
0.56808 -0.122538 0.626346
0.715833 -0.0917407 0.613222
0.833333 0 0.6
0.166667 0.166667 0.6
0.317656 0.109936 0.615123
0.439004 0.0761203 0.629209
0.556744 0.0766731 0.629592
0.679996 0.10971 0.615092
0.833333 0.166667 0.6
0.166667 0.333333 0.6
0.320872 0.306013 0.613862
0.442916 0.285578 0.628043
0.554111 0.287966 0.630906
0.67774 0.309578 0.616182
0.833333 0.333333 0.6
0.166667 0.5 0.6
0.321792 0.497537 0.612716
0.444695 0.497081 0.624844
0.555232 0.500214 0.629374
0.678584 0.501631 0.616565
0.833333 0.5 0.6
0.166667 0.666667 0.6
0.322541 0.690172 0.614362
0.445937 0.709242 0.625065
0.556691 0.711221 0.628432
0.67942 0.691918 0.616947
0.833333 0.666667 0.6
0.166667 0.833333 0.6
0.319709 0.889908 0.61451
0.442931 0.921078 0.624354
0.560135 0.920968 0.62542
0.683052 0.887185 0.613943
0.833333 0.833333 0.6
0.166667 1 0.6
0.283965 1.09023 0.614671
0.431901 1.11989 0.622546
0.571623 1.11851 0.620635
0.718093 1.08662 0.60664
0.833333 1 0.6
0.166667 0 0.8
0.276163 -0.0892891 0.853573
0.421908 -0.119223 0.88043
0.573326 -0.12113 0.87592
0.723801 -0.0916418 0.84059
0.833333 0 0.8
0.166667 0.166667 0.8
0.316329 0.109346 0.853809
0.435702 0.0744671 0.883913
0.559747 0.0737598 0.880147
0.682053 0.108616 0.845271
0.833333 0.166667 0.8
0.166667 0.333333 0.8
0.32011 0.306466 0.854545
0.440286 0.283583 0.885181
0.556165 0.284155 0.882796
0.679686 0.307519 0.847802
0.833333 0.333333 0.8
0.166667 0.5 0.8
0.32117 0.497745 0.85288
0.442412 0.496505 0.880927
0.557286 0.497725 0.878841
0.680573 0.499122 0.845891
0.833333 0.5 0.8
0.166667 0.666667 0.8
0.320416 0.689096 0.85457
0.441837 0.708954 0.883043
0.557639 0.709928 0.879975
0.681014 0.689254 0.846096
0.833333 0.666667 0.8
0.166667 0.833333 0.8
0.315739 0.886949 0.851682
0.436883 0.919281 0.879431
0.560472 0.919017 0.875957
0.685286 0.884277 0.841835
0.833333 0.833333 0.8
0.166667 1 0.8
0.278665 1.08524 0.847932
0.424756 1.11352 0.875841
0.573511 1.11258 0.871752
0.722278 1.0809 0.833978
0.833333 1 0.8
0.166667 0 1
0.236755 -0.073257 1.08006
0.407398 -0.107859 1.10859
0.591364 -0.108342 1.10464
0.762251 -0.0816713 1.06142
0.833333 0 1
0.166667 0.166667 1
0.272005 0.118542 1.0936
0.420737 0.0799126 1.11872
0.574873 0.0780664 1.11461
0.717028 0.107599 1.08091
0.833333 0.166667 1
0.166667 0.333333 1
0.277094 0.311967 1.09684
0.425948 0.287507 1.12537
0.56938 0.286178 1.12271
0.714216 0.304156 1.08813
0.833333 0.333333 1
0.166667 0.5 1
0.280582 0.498711 1.09697
0.430126 0.497245 1.12389
0.569897 0.496338 1.12069
0.71421 0.493144 1.08733
0.833333 0.5 1
0.166667 0.666667 1
0.278313 0.684973 1.0971
0.427928 0.706066 1.12408
0.571594 0.704888 1.1199
0.715933 0.680733 1.08563
0.833333 0.666667 1
0.166667 0.833333 1
0.272531 0.880496 1.09304
0.421262 0.913744 1.11531
0.576309 0.912553 1.11124
0.719495 0.87482 1.07731
0.833333 0.833333 1
0.166667 1 1
0.244551 1.07183 1.07978
0.411554 1.09988 1.10329
0.586682 1.0982 1.10136
0.76235 1.0565 1.05053
0.833333 1 1
0.166667 0 0.0666667
0.166667 0 0.133333
0.197279 -0.0317297 0.114026
0.221848 -0.0486421 0.0266546
0.192847 -0.0461715 -0.0517888
0.169082 -0.0292353 -0.0305468
0.166667 0.0555556 0
0.166667 0.111111 0
0.166667 0.0555556 0.133333
0.166667 0.111111 0.0666667
0.221909 0.00451198 -0.0473133
0.197182 0.0870755 -0.0340027
0.166667 0.0555556 0.0666667
0.207447 0.0216017 0.0401289
0.19075 0.0298165 -0.0300996
0.193305 -0.0326921 0.0415789
0.264762 -0.00680104 -0.0697182
0.275589 0.0595212 -0.0770389
0.242294 0.135988 -0.0654065
0.203254 0.148459 -0.0388669
0.256846 0.0698235 0.0183009
0.21681 0.0267715 0.113547
0.24505 0.00496049 0.0223019
0.212354 0.0879081 0.0376582
0.233301 0.0692657 -0.0573348
0.166667 0.0555556 0.2
0.166667 0.111111 0.2
0.222201 0.148519 0.114016
0.259654 0.134945 0.0171718
0.166667 0.166667 0.133333
0.166667 0.166667 0.0666667
0.166667 0.111111 0.133333
0.215295 0.148542 0.0385939
0.217028 0.0888036 0.112202
0.26776 -0.073067 0.00973856
0.27698 -0.0787734 0.0869236
0.295619 -0.0181175 0.0852266
0.297063 0.0526932 0.00147442
0.235052 -0.0645277 0.175945
0.198903 -0.0361487 0.187477
0.234778 -0.0612956 0.0991049
0.253631 0.000845977 0.0980306
0.285023 -0.013549 0.00495642
0.257124 0.00132206 0.173844
0.221595 0.088131 0.185685
0.211629 0.0257622 0.184834
0.261303 0.0662386 0.0967635
0.301621 0.11997 -0.00102861
0.311641 0.116653 0.0790686
0.220305 0.149526 0.185478
0.271068 0.129289 0.169695
0.298901 -0.0204532 0.163077
0.310124 0.0481017 0.159956
0.267382 0.131216 0.0940518
0.266836 0.0650203 0.17123
0.304766 0.0492533 0.0809347
0.322053 -0.0929495 0.0708984
0.364968 -0.0982336 -0.0202889
0.354511 -0.0936628 -0.09352
0.294731 -0.0822044 -0.0790086
0.362245 -0.0340438 -0.0947787
0.320034 0.0409403 -0.0866386
0.327139 -0.026992 -0.00951897
0.311081 -0.0226754 -0.0828122
0.315086 -0.087605 -0.00742978
0.417142 -0.0407479 -0.103967
0.420345 0.0219883 -0.107184
0.372757 0.0952396 -0.103452
0.324366 0.108688 -0.0912786
0.380889 0.0284179 -0.0250113
0.336683 -0.031253 0.0702204
0.37301 -0.036405 -0.0211606
0.336209 0.0388668 -0.01232
0.367998 0.0297031 -0.0971918
0.35199 0.104144 0.0646072
0.385118 0.0951855 -0.0288177
0.342115 0.105884 -0.0155132
0.345387 0.0351803 0.0668199
0.418454 -0.103035 -0.0297388
0.422698 -0.107751 0.0464455
0.428061 -0.0469755 0.0472893
0.427655 0.0212677 -0.0332976
0.375842 -0.107566 0.135139
0.325643 -0.097043 0.149664
0.371356 -0.100869 0.0561798
0.380892 -0.040107 0.0565483
0.422475 -0.042388 -0.0299923
0.385195 -0.0452208 0.136074
0.351106 0.0328161 0.147134
0.340579 -0.0341542 0.148365
0.38665 0.0249869 0.0547339
0.430672 0.0872809 -0.0373842
0.435819 0.0848424 0.0414251
0.3561 0.101305 0.145144
0.398516 0.0880297 0.131502
0.430891 -0.0525391 0.127889
0.435417 0.0130961 0.126429
0.392735 0.0928634 0.0509822
0.392629 0.0206104 0.135181
0.431376 0.0181431 0.0449673
0.474522 -0.111519 0.0411822
0.527745 -0.107108 -0.0370336
0.529628 -0.105325 -0.108529
0.471011 -0.104674 -0.107262
0.527279 -0.0452155 -0.109619
0.473036 0.0179034 -0.110797
0.473859 -0.0455899 -0.0351712
0.471271 -0.0447963 -0.107649
0.472438 -0.10601 -0.0352599
0.583595 -0.0416008 -0.107224
0.580006 0.0211378 -0.110949
0.526581 0.0831049 -0.117631
0.474663 0.0837082 -0.11562
0.524923 0.0174925 -0.0400173
0.476489 -0.0504933 0.0420469
0.525564 -0.0462807 -0.0369352
0.475394 0.0182052 -0.0375261
0.525959 0.0174739 -0.11208
0.479347 0.0817782 0.0370579
0.524033 0.0838095 -0.0443743
0.477152 0.084556 -0.0414743
0.477175 0.013788 0.0403922
0.583141 -0.103422 -0.0340394
0.579073 -0.108086 0.0420779
0.57359 -0.0478847 0.0424746
0.574282 0.0206866 -0.0380008
0.525818 -0.117765 0.120079
0.475259 -0.117353 0.121818
0.526323 -0.110417 0.0393143
0.524941 -0.0499886 0.0406906
0.577173 -0.043085 -0.0347631
0.523138 -0.0564051 0.120985
0.478703 0.00939847 0.121913
[...]
POINT_DATA 4864
SCALARS scalars float 1
LOOKUP_TABLE default
0.166667 0.0933866 0.144456 0.146236 0.116027 0.166667 0.166667 0.119629 0.140293 0.142907 0.1259 0.166667 0.166667 0.121455 0.12947 0.133454 0.127509 0.166667 0.166667 0.123066 0.124211 0.126773 0.127402 0.166667 0.166667 0.126874 0.135627 0.135192 0.126013 0.166667 0.166667 0.130266 0.147346 0.14771 0.126958 0.166667 0.166667 0.112255 0.150192 0.150408 0.110444 0.166667 0.166667 0.11826 0.137687 0.139609 0.125321 0.166667 0.166667 0.132533 0.122262 0.12348 0.137175 0.166667 0.166667 0.129873 0.100522 0.101972 0.134485 0.166667 0.166667 0.128248 0.0894845 0.0905066 0.132324 0.166667 0.166667 0.13287 0.107378 0.105659 0.133774 0.166667 0.166667 0.138664 0.13007 0.128712 0.139471 0.166667 0.166667 0.12543 0.144417 0.144214 0.129662 0.166667 0.166667 0.119126 0.124409 0.127387 0.125581 0.166667 0.166667 0.129425 0.0999551 0.101494 0.133352 0.166667 0.166667 0.124187 0.0682043 0.0681303 0.125807 0.166667 0.166667 0.12219 0.0526138 0.0518229 0.122879 0.166667 0.166667 0.125644 0.0719588 0.0696348 0.124337 0.166667 0.166667 0.133296 0.103976 0.102245 0.131421 0.166667 0.166667 0.121981 0.127626 0.126979 0.124806 0.166667 0.166667 0.123452 0.127432 0.129339 0.125201 0.166667 0.166667 0.131491 0.102826 0.104142 0.133689 0.166667 0.166667 0.124694 0.0700624 0.0715482 0.125594 0.166667 0.166667 0.122478 0.0512187 0.0535453 0.122551 0.166667 0.166667 0.125599 0.0674619 0.0683312 0.124356 0.166667 0.166667 0.133198 0.100674 0.0995748 0.129504 0.166667 0.166667 0.124123 0.126097 0.123593 0.119398 0.166667 0.166667 0.12901 0.145476 0.145422 0.125905 0.166667 0.166667 0.140404 0.129679 0.129134 0.139035 0.166667 0.166667 0.134623 0.106555 0.105807 0.132011 0.166667 0.166667 0.132226 0.0914338 0.0896973 0.127944 0.166667 0.166667 0.134094 0.10215 0.100309 0.129586 0.166667 0.166667 0.137627 0.122706 0.121135 0.132306 0.166667 0.166667 0.125507 0.138747 0.136106 0.11722 0.166667 0.166667 0.114571 0.153234 0.150872 0.108937 0.166667 0.166667 0.127522 0.148497 0.147027 0.130076 0.166667 0.166667 0.125614 0.135979 0.134974 0.1264 0.166667 0.166667 0.126086 0.127527 0.124443 0.122612 0.166667 0.166667 0.126077 0.133151 0.129012 0.120824 0.166667 0.166667 0.127048 0.142178 0.138601 0.119073 0.166667 0.166667 0.116229 0.144149 0.141754 0.0846347 0.166667 0.166667 0.166667 0.13579 0.108636 0.0914101 0.1108 0.166667 0.166667 0.166667 0.166667 0.112648 0.136996 0.166667 0.147228 0.13025 0.133174 0.113768 0.119625 0.130735 0.143172 0.138922 0.154152 0.130417 0.150348 0.122604 0.166667 0.166667 0.157777 0.13933 0.166667 0.166667 0.166667 0.152339 0.153468 0.114765 0.11952 0.129942 0.130705 0.122838 0.137659 0.123368 0.136788 0.125748 0.137658 0.157277 0.148767 0.140453 0.130729 0.133827 0.155272 0.145899 0.130084 0.133045 0.144114 0.144135 0.132469 0.124922 0.134951 0.134042 0.11742 0.133592 0.123605 0.127575 0.122273 0.124536 0.142749 0.140873 0.131751 0.122567 0.132305 0.128146 0.133209 0.127649 0.131435 0.126145 0.130033 0.127045 0.128009 0.142305 0.140267 0.136761 0.137221 0.132606 0.124215 0.132563 0.131564 0.139431 0.130123 0.126708 0.127189 0.12821 0.134423 0.128161 0.123611 0.122982 0.133562 0.12757 0.125528 0.126127 0.132046 0.144879 0.149188 0.15128 0.149936 0.149023 0.144928 0.143712 0.147241 0.147175 0.145621 0.144238 0.144448 0.142528 0.142185 0.140271 0.14548 0.139871 0.146234 0.12898 0.138859 0.136186 0.134982 0.145335 0.142997 0.140188 0.140689 0.142522 0.141273 0.145192 0.140686 0.143314 0.137414 0.128794 0.135706 0.135748 0.138039 0.131372 0.12076 0.12245 0.136174 0.130369 0.130084 0.129825 0.135819 0.13754 0.131741 0.129187 0.140516 0.131778 0.138751 0.138145 0.139248 0.138706 0.122662 0.126129 0.131594 0.137391 0.135516 0.137187 0.134127 0.137585 0.130994 0.131182 0.135824 0.135322 0.134566 0.122372 0.124829 0.136859 0.135749 0.130168 0.135379 0.130466 0.134009 0.130795 0.13434 0.13133 0.134757 0.135691 0.136235 0.138811 0.125301 0.129718 0.135469 0.138541 0.133451 0.132818 0.139593 0.122143 0.138551 0.0993798 0.0999763 0.126916 0.121258 0.134856 0.113769 0.117586 0.166667 0.166667 0.129415 0.123011 0.157199 0.142506 0.151679 0.138847 0.127494 0.14836 0.159325 0.141772 0.148149 0.166667 0.166667 0.166667 0.166667 0.139873 0.1279 0.139914 0.151526 0.166667 0.158206 0.149358 0.142797 0.159573 0.166667 0.166667 0.148474 0.15882 0.166667 0.166667 0.158177 0.159236 0.166667 0.166667 0.166667 0.166667 0.166667 0.123798 0.14116 0.166667 0.150598 0.143526 0.120342 0.120448 0.131712 0.144434 0.139918 0.157301 0.137267 0.151599 0.12616 0.166667 0.166667 0.157922 0.139762 0.166667 0.166667 0.166667 0.153037 0.154733 0.133273 0.130811 0.144241 0.129611 0.144148 0.157503 0.155368 0.141302 0.130458 0.132613 0.155419 0.144929 0.132304 0.131072 0.144618 0.144653 0.131299 0.127746 0.120165 0.124998 0.120277 0.13537 0.131167 0.125026 0.119781 0.124422 0.12436 0.126123 0.123716 0.124521 0.121384 0.122518 0.123521 0.122249 0.122519 0.125955 0.121817 0.129325 0.116831 0.119868 0.121229 0.117161 0.122865 0.113048 0.115896 0.108983 0.114592 0.106541 0.115831 0.112067 0.116631 0.140093 0.13407 0.131345 0.137425 0.139732 0.136172 0.134188 0.131851 0.129902 0.122732 0.133793 0.127073 0.135968 0.111031 0.12651 0.123554 0.117008 0.126546 0.130773 0.123691 0.134276 0.114627 0.103909 0.112218 0.118468 0.127732 0.116794 0.0967877 0.0991148 0.116747 0.10908 0.113425 0.105495 0.12144 0.131615 0.133479 0.133837 0.134588 0.126606 0.126685 0.130538 0.132741 0.135103 0.128542 0.135008 0.13167 0.130804 0.121226 0.134073 0.129459 0.124936 0.139616 0.137892 0.131523 0.138772 0.128971 0.115594 0.120773 0.131398 0.136946 0.138 0.110835 0.121881 0.137764 0.136821 0.129349 0.124872 0.139127 0.130082 0.123918 0.143044 0.122702 0.166667 0.166667 0.130743 0.12505 0.158909 0.149014 0.158761 0.142718 0.129028 0.148603 0.159827 0.143681 0.149033 0.166667 0.166667 0.157929 0.166667 0.159454 0.148559 0.148526 0.159589 0.166667 0.166667 0.147553 0.158648 0.166667 0.166667 0.1588 0.158641 0.166667 0.166667 0.166667 0.166667 0.166667 0.124236 0.141344 0.166667 0.151115 0.143442 0.119861 0.120438 0.132248 0.144648 0.140132 0.15744 0.137292 0.152076 0.126095 0.166667 0.166667 0.157898 0.140543 0.166667 0.166667 0.166667 0.153743 0.154974 0.131928 0.131051 0.144152 0.129152 0.143518 0.157362 0.155205 0.141382 0.131185 0.132417 0.155697 0.144409 0.129649 0.129199 0.14512 0.144055 0.130471 0.121412 0.11874 0.122094 0.117758 0.126055 0.124337 0.12308 0.120252 0.119549 0.119885 0.119338 0.12216 0.120282 0.120095 0.120135 0.123578 0.119101 0.108689 0.118112 0.113199 0.119136 0.104986 0.115464 0.114817 0.110584 0.118089 0.106803 0.113257 0.103089 0.0958223 0.0919853 0.112751 0.103184 0.106248 0.130352 0.12623 0.119715 0.12748 0.131105 0.128879 0.129187 0.127435 0.120395 0.106793 0.12259 0.118116 0.128134 0.102848 0.120125 0.118099 0.104519 0.112822 0.122197 0.108678 0.124418 0.0944945 0.0876556 0.0915468 0.106674 0.12163 0.108986 0.0866024 0.0886847 0.098625 0.0946454 0.106066 0.0897513 0.111135 0.130097 0.129243 0.128392 0.129746 0.12616 0.126021 0.129852 0.129786 0.132831 0.119678 0.132429 0.126698 0.129167 0.116288 0.132703 0.126348 0.118296 0.138274 0.136737 0.127599 0.138673 0.1228 0.106313 0.109035 0.127981 0.136918 0.136849 0.104334 0.117934 0.135271 0.134759 0.127182 0.119838 0.138562 0.128972 0.122634 0.143251 0.122785 0.166667 0.166667 0.130268 0.124847 0.158532 0.14867 0.159464 0.142965 0.127956 0.148318 0.160106 0.143351 0.14873 0.166667 0.166667 0.158531 0.166667 0.159194 0.147347 0.147494 0.159702 0.166667 0.166667 0.146646 0.158068 0.166667 0.166667 0.159352 0.158186 0.166667 0.166667 0.166667 0.166667 0.166667 0.125417 0.141408 0.166667 0.151508 0.143348 0.121414 0.123007 0.134309 0.145846 0.141907 0.157992 0.138504 0.153315 0.128712 0.166667 0.166667 0.158596 0.142826 0.166667 0.166667 0.166667 0.154876 0.155981 0.133052 0.134069 0.145327 0.131245 0.144402 0.158156 0.155744 0.143446 0.135326 0.136633 0.157017 0.146826 0.129998 0.131946 0.147611 0.145596 0.133388 0.122867 0.122857 0.124152 0.119252 0.126274 0.130181 0.131333 0.126302 0.12528 0.121114 0.120728 0.126875 0.125386 0.127207 0.129693 0.130524 0.123316 0.108306 0.124936 0.114439 0.119672 0.104945 0.119891 0.115515 0.116521 0.129762 0.120111 0.120562 0.113936 0.0940001 0.100382 0.122489 0.10887 0.113218 0.129958 0.131528 0.120138 0.127545 0.129484 0.132759 0.138395 0.137605 0.125627 0.105921 0.122129 0.124376 0.132015 0.117532 0.131114 0.129769 0.11116 0.110296 0.126462 0.107738 0.123752 0.0923885 0.09621 0.0904537 0.112607 0.130949 0.120177 0.103337 0.103817 0.0956342 0.100997 0.118424 0.0965972 0.116031 0.129486 0.131087 0.12722 0.130445 0.126639 0.125996 0.130719 0.134158 0.133363 0.117951 0.133033 0.129241 0.129034 0.123462 0.134988 0.131595 0.12099 0.137319 0.136717 0.127246 0.136391 0.121301 0.109487 0.107327 0.129235 0.136962 0.137681 0.112763 0.121735 0.134144 0.135028 0.130566 0.120866 0.138863 0.129368 0.122436 0.145208 0.122741 0.166667 0.166667 0.128933 0.123458 0.15854 0.148583 0.159218 0.142684 0.126014 0.147959 0.159503 0.143954 0.148753 0.166667 0.166667 0.158697 0.166667 0.158949 0.146859 0.146969 0.159611 0.166667 0.166667 0.147136 0.157885 0.166667 0.166667 0.159399 0.157794 0.166667 0.166667 0.166667 0.166667 0.166667 0.128491 0.142189 0.166667 0.152171 0.144463 0.125503 0.12748 0.136583 0.148141 0.143962 0.158489 0.141141 0.154696 0.132056 0.166667 0.166667 0.15971 0.145498 0.166667 0.166667 0.166667 0.156766 0.156821 0.137646 0.138664 0.147833 0.135934 0.147207 0.159077 0.156917 0.146153 0.139738 0.140868 0.1579 0.149241 0.135168 0.137527 0.149963 0.148238 0.138086 0.132902 0.130758 0.131967 0.127515 0.138855 0.143247 0.141556 0.133665 0.136435 0.129467 0.132069 0.13491 0.136512 0.135786 0.139805 0.13753 0.131849 0.124845 0.139451 0.126347 0.133602 0.118951 0.130023 0.124527 0.129934 0.143191 0.137291 0.131565 0.13048 0.114121 0.12237 0.135181 0.124315 0.130681 0.142102 0.145915 0.134721 0.140748 0.139807 0.144294 0.151615 0.150889 0.141021 0.124154 0.135783 0.139989 0.14618 0.137525 0.146087 0.144662 0.13041 0.124783 0.139747 0.124122 0.134846 0.111967 0.120368 0.111441 0.130643 0.143739 0.136721 0.128586 0.128539 0.113385 0.12188 0.137159 0.11953 0.131866 0.132366 0.13928 0.135344 0.135974 0.125751 0.126106 0.135866 0.142939 0.137771 0.127267 0.135572 0.138192 0.133475 0.135716 0.139446 0.14069 0.132061 0.13844 0.137466 0.131692 0.139131 0.126707 0.123384 0.118437 0.135263 0.138857 0.141196 0.12944 0.131879 0.136396 0.138878 0.137239 0.128431 0.140964 0.128198 0.121269 0.143591 0.122073 0.166667 0.166667 0.128889 0.123653 0.158146 0.148412 0.159388 0.143383 0.126696 0.148448 0.159122 0.142994 0.149224 0.166667 0.166667 0.158886 0.166667 0.159029 0.1481 0.147686 0.159745 0.166667 0.166667 0.149345 0.158306 0.166667 0.166667 0.159999 0.157888 0.166667 0.166667 0.166667 0.166667 0.166667 0.131955 0.137698 0.166667 0.153341 0.144034 0.127945 0.122106 0.108159 0.124305 0.136152 0.159225 0.142761 0.14898 0.125129 0.166667 0.166667 0.135046 0.111575 0.166667 0.166667 0.166667 0.129526 0.151053 0.140089 0.134299 0.148827 0.138848 0.149891 0.157665 0.157692 0.139737 0.120894 0.126841 0.138171 0.12759 0.140155 0.136684 0.12184 0.142687 0.136169 0.141882 0.131489 0.1379 0.132814 0.148695 0.150184 0.142625 0.128671 0.142425 0.136235 0.141013 0.136212 0.141684 0.134691 0.143679 0.133063 0.13659 0.140664 0.148076 0.138182 0.145118 0.135354 0.136442 0.135134 0.140294 0.150546 0.14851 0.132684 0.139879 0.135626 0.141241 0.142215 0.138113 0.144787 0.153726 0.15486 0.148208 0.152768 0.149548 0.150653 0.157037 0.156615 0.151421 0.142462 0.148634 0.151303 0.155252 0.151726 0.154892 0.154223 0.146933 0.139908 0.147645 0.141878 0.146091 0.136163 0.143052 0.135856 0.146919 0.150995 0.148477 0.14841 0.148241 0.135234 0.141302 0.151211 0.142437 0.144888 0.13593 0.144758 0.142224 0.144783 0.126128 0.120481 0.129387 0.143437 0.137197 0.138857 0.140779 0.14317 0.133181 0.141341 0.133181 0.14237 0.14098 0.140752 0.132102 0.137382 0.137465 0.135458 0.138471 0.134636 0.138857 0.122657 0.126566 0.141283 0.135104 0.140047 0.138973 0.134271 0.136344 0.138228 0.128811 0.113035 0.143949 0.120581 0.166667 0.166667 0.104439 0.0995865 0.155329 0.146558 0.158837 0.134015 0.115507 0.120032 0.132763 0.117759 0.143542 0.166667 0.166667 0.159108 0.166667 0.159071 0.143097 0.148191 0.154162 0.166667 0.166667 0.130234 0.139932 0.166667 0.166667 0.137163 0.151412 0.166667 0.166667 0.166667 0.135554 0.117749 0.166667 0.166667 0.166667 0.149651 0.133287 0.144146 0.15425 0.135271 0.154348 0.166667 0.166667 0.157374 0.143703 0.166667 0.166667 0.166667 0.155506 0.153932 0.118444 0.11908 0.129679 0.133388 0.124679 0.138487 0.122925 0.138084 0.128548 0.138922 0.157598 0.150075 0.141243 0.13239 0.132185 0.155245 0.144896 0.130525 0.131982 0.144132 0.144693 0.131749 0.122147 0.128476 0.125819 0.122469 0.122796 0.125149 0.125731 0.124801 0.120722 0.116795 0.122287 0.123385 0.132592 0.128824 0.124519 0.122033 0.124879 0.121133 0.124793 0.123763 0.128314 0.122413 0.122439 0.124155 0.118189 0.114477 0.107551 0.116374 0.109635 0.120842 0.111712 0.112329 0.117156 0.116278 0.131857 0.138103 0.130437 0.135545 0.124161 0.126105 0.131567 0.121986 0.104627 0.114571 0.112387 0.116942 0.134781 0.131475 0.127859 0.124711 0.1302 0.128624 0.131844 0.126453 0.131982 0.123553 0.111362 0.121981 0.117573 0.116195 0.108903 0.0982506 0.100249 0.123144 0.113803 0.105609 0.112802 0.118934 0.128738 0.129234 0.130851 0.131976 0.130943 0.128064 0.133212 0.12627 0.114352 0.128273 0.119448 0.123503 0.126531 0.124778 0.136062 0.138207 0.12677 0.128094 0.127182 0.129705 0.136135 0.130359 0.120463 0.12619 0.129678 0.137426 0.135948 0.111352 0.121476 0.13471 0.136538 0.124164 0.127528 0.139209 0.127465 0.142013 0.144878 0.127055 0.159994 0.144439 0.154903 0.147605 0.148479 0.159438 0.147625 0.14935 0.166667 0.166667 0.166667 0.166667 0.140461 0.129798 0.142007 0.153066 0.166667 0.158922 0.149846 0.144106 0.159913 0.166667 0.166667 0.14756 0.158412 0.166667 0.166667 0.158134 0.159968 0.166667 0.166667 0.166667 0.166667 0.153794 0.143141 0.15697 0.140497 0.155155 0.166667 0.166667 0.157023 0.141932 0.166667 0.166667 0.166667 0.15556 0.154079 0.129534 0.129528 0.143897 0.128541 0.142822 0.157097 0.155713 0.13956 0.127441 0.126799 0.154765 0.142125 0.128776 0.126531 0.142294 0.143115 0.125983 0.117328 0.104277 0.116427 0.108425 0.11451 0.109601 0.0989697 0.112015 0.110513 0.0962326 0.0956282 0.105008 0.104368 0.100188 0.109709 0.112453 0.0958236 0.0885729 0.0783243 0.103455 0.0874613 0.0902017 0.0784621 0.09224 0.0937756 0.0852048 0.101971 0.0935081 0.0922935 0.103157 0.0915638 0.0674681 0.0849564 0.0825534 0.0801266 0.0986253 0.0975742 0.0928394 0.108071 0.0870552 0.0699976 0.084809 0.0811287 0.0901899 0.0781139 0.055741 0.0586679 0.0913427 0.079054 0.069192 0.0717835 0.0878504 0.113905 0.120336 0.106688 0.123949 0.106991 0.092578 0.118166 0.101394 0.100667 0.133129 0.133147 0.118063 0.136676 0.118201 0.0943356 0.103362 0.116162 0.132243 0.128868 0.0872421 0.106667 0.131713 0.129241 0.111314 0.111838 0.131698 0.148231 0.159233 0.146975 0.159229 0.146567 0.14491 0.158987 0.145961 0.146482 0.166667 0.166667 0.157925 0.166667 0.159094 0.145478 0.147044 0.15893 0.166667 0.166667 0.143729 0.157036 0.166667 0.166667 0.157662 0.158277 0.166667 0.166667 0.166667 0.166667 0.15382 0.142014 0.156697 0.138922 0.155373 0.166667 0.166667 0.156927 0.141296 0.166667 0.166667 0.166667 0.156046 0.154181 0.125291 0.126762 0.142218 0.124636 0.140959 0.156898 0.155174 0.138451 0.125568 0.125081 0.155179 0.141436 0.124004 0.123413 0.142031 0.141739 0.12283 0.108605 0.0924979 0.106642 0.092717 0.108214 0.105627 0.0913327 0.108505 0.103176 0.0698653 0.0779094 0.0877179 0.0812426 0.0808595 0.102396 0.101685 0.0817264 0.0768778 0.06556 0.0989867 0.077725 0.0599377 0.0545862 0.0844983 0.0788186 0.0641308 0.0753746 0.0728244 0.0582187 0.0774011 0.0708178 0.0497267 0.0717119 0.0695782 0.0520273 0.0712079 0.0798065 0.0595943 0.0857794 0.0479369 0.0347193 0.0440528 0.0542514 0.0782834 0.063668 0.0313985 0.0335724 0.0610614 0.0543636 0.0515502 0.0366633 0.0674595 0.099317 0.114022 0.0883951 0.116139 0.0956243 0.0831598 0.113932 0.0941737 0.0865766 0.12798 0.130012 0.108002 0.132513 0.1065 0.0781465 0.0831324 0.108408 0.129711 0.125483 0.0771741 0.100271 0.125622 0.124688 0.106175 0.102501 0.128046 0.146547 0.158673 0.144392 0.158808 0.145497 0.143126 0.158619 0.145227 0.144191 0.166667 0.166667 0.157536 0.166667 0.157961 0.142561 0.143835 0.158409 0.166667 0.166667 0.142067 0.156048 0.166667 0.166667 0.157455 0.157209 0.166667 0.166667 0.166667 0.166667 0.154707 0.14345 0.157092 0.13951 0.15652 0.166667 0.166667 0.157602 0.143986 0.166667 0.166667 0.166667 0.157582 0.15501 0.125024 0.129034 0.142658 0.125065 0.141486 0.157532 0.155746 0.13996 0.129876 0.128486 0.156439 0.143418 0.123528 0.125072 0.144325 0.142776 0.124836 0.108729 0.0982917 0.105999 0.0919243 0.112145 0.112506 0.103424 0.116266 0.106436 0.0667037 0.0869298 0.0861481 0.0790474 0.0785526 0.105942 0.101031 0.0870645 0.0939146 0.0828711 0.106375 0.0890685 0.0551919 0.063202 0.0959901 0.083601 0.0727693 0.0731316 0.0807934 0.0539548 0.0749211 0.0794579 0.0732371 0.0893788 0.0879781 0.0617084 0.066442 0.0869393 0.0547001 0.0823408 0.0392231 0.0489589 0.0376175 0.0629464 0.0934943 0.0802019 0.0607957 0.0596542 0.0555113 0.0617086 0.0731275 0.0472682 0.0744632 0.0973743 0.115412 0.0855219 0.115029 0.0993419 0.0926543 0.118102 0.103133 0.0896661 0.126588 0.130333 0.106303 0.13128 0.103872 0.0815542 0.0797065 0.109612 0.131595 0.127193 0.0879173 0.104726 0.124046 0.124758 0.111247 0.103298 0.128532 0.145941 0.158459 0.143771 0.158576 0.145883 0.143454 0.15856 0.146244 0.144034 0.166667 0.166667 0.15758 0.166667 0.157598 0.142039 0.142925 0.158363 0.166667 0.166667 0.142654 0.155666 0.166667 0.166667 0.157805 0.156739 0.166667 0.166667 0.166667 0.166667 0.156245 0.146743 0.158158 0.142789 0.158409 0.166667 0.166667 0.159273 0.148553 0.166667 0.166667 0.166667 0.159471 0.156496 0.12996 0.13542 0.145757 0.130704 0.144751 0.158864 0.157083 0.144204 0.13822 0.136418 0.158017 0.147245 0.128663 0.131587 0.148709 0.146316 0.131833 0.118838 0.11673 0.115906 0.108277 0.123986 0.126392 0.12378 0.129791 0.118913 0.0910506 0.112883 0.102657 0.101201 0.0959045 0.118569 0.111505 0.108196 0.121554 0.113365 0.121664 0.112867 0.0818731 0.0939478 0.118296 0.104491 0.1022 0.0983254 0.109218 0.0851875 0.0989558 0.108543 0.110293 0.119789 0.118949 0.0969331 0.0896799 0.111544 0.0845392 0.101842 0.0740054 0.0895272 0.0748138 0.0971128 0.12058 0.111285 0.102201 0.100946 0.0809218 0.0927895 0.109742 0.0876245 0.102325 0.110448 0.12505 0.100634 0.121849 0.116174 0.115218 0.129587 0.122665 0.108662 0.129974 0.135253 0.114549 0.13435 0.111607 0.102283 0.095684 0.120418 0.138196 0.134668 0.111742 0.119016 0.127422 0.13032 0.125027 0.114643 0.134002 0.147224 0.158982 0.145456 0.158699 0.148375 0.14682 0.159274 0.149253 0.146616 0.166667 0.166667 0.158206 0.166667 0.157883 0.144327 0.144361 0.159164 0.166667 0.166667 0.146453 0.156559 0.166667 0.166667 0.159253 0.157247 0.166667 0.166667 0.166667 0.166667 0.157307 0.142789 0.15967 0.146364 0.15366 0.166667 0.166667 0.137882 0.12294 0.166667 0.166667 0.166667 0.138272 0.151948 0.137794 0.137223 0.149946 0.13866 0.149969 0.157872 0.158945 0.141795 0.125755 0.125578 0.139246 0.126973 0.13696 0.133781 0.125507 0.144547 0.135129 0.132466 0.134188 0.129907 0.129085 0.133624 0.128626 0.135825 0.129611 0.130718 0.121713 0.136521 0.12554 0.128254 0.121612 0.130565 0.127976 0.130025 0.139986 0.13451 0.125862 0.128525 0.115505 0.124409 0.131792 0.127064 0.130044 0.128808 0.136611 0.121255 0.12897 0.136496 0.136696 0.142581 0.141478 0.130141 0.120675 0.135878 0.120549 0.128191 0.113739 0.125144 0.114806 0.130298 0.139812 0.133496 0.131499 0.130962 0.114579 0.123697 0.135288 0.124098 0.129542 0.130475 0.134425 0.124457 0.133876 0.13422 0.131073 0.132023 0.134806 0.129857 0.137054 0.