# vtk DataFile Version 5.1
vtk output
ASCII

DATASET UNSTRUCTURED_GRID
POINTS 425 float
3.5 1 0.5
2.75 1 0.5
4 0.75 1
0.5 0 1
1.5 0.5 1
0.75 0.5 1
0.25 0.25 1
0 0 0
3.75 1 0.5
3.25 1 0.5
0.25 0.5 1
4 0 0.5
1 0.5 1
4 0.75 0.5
4 0.25 0.5
0.25 0 0
1.5 0 1
1 0 1
1.5 0.75 1
0.5 0 0
1 1 0.75
0.25 1 1
0.75 0 0
2.25 0 1
2.25 0.5 1
0.75 1 0.25
1 0 0
1.25 0.5 1
1.25 1 0.5
4 0.25 0.25
1.25 0 0
2.5 0 1
3.5 0.5 1
2.5 0.75 1
1.5 0 0
4 0 0.25
4 0.25 0
1.25 1 0.75
1.75 0 0
2.5 0.5 1
0.75 1 0.75
2.25 0.75 1
2 0 0
2 0.5 1
2 0.75 1
1 0.75 1
2.25 0 0
3.5 0 1
0.5 0.75 1
3.5 0.75 1
2.5 0 0
1 1 0.5
0 1 0.5
4 0.5 0
2.75 0 0
0 0.5 1
0 1 1
0 1 0.75
3 0 0
3 0.5 1
0.75 1 0.5
3 0.75 1
3.25 0 0
2.5 1 0.5
3 1 0.5
0.5 1 0.75
3.5 0 0
4 0 0
0.25 0 1
3.75 0 0
2 1 0.5
1.5 1 0.5
3.25 0.5 1
0 0.25 0
2.25 1 0.5
1.75 1 0.5
4 0.5 0.5
0.25 0.25 0
0.5 1 0.5
0.5 0.25 0
4 0.25 1
0.75 0.25 0
0 1 0.25
1 0.25 0
4 0.5 0.25
1.25 0.25 0
0.5 1 0.25
1.5 0.25 0
4 0.5 1
1.75 0.25 0
3.75 0 1
2 0.25 0
4 1 0
2.25 0.25 0
2.5 0.25 0
4 0.75 0
2.75 0.25 0
0.5 0.5 1
3 0.25 0
1 1 0.25
3.25 0.25 0
3.5 0.25 0
0 0.25 1
3.75 0.25 0
3.25 0.75 1
0 0.5 0
4 0.25 0.75
3.75 0.5 1
1.25 1 0.25
0.25 0.5 0
1.5 1 0.25
0.5 0.5 0
1.75 1 0.25
0.75 0.5 0
2 1 0.25
1 0.5 0
2.25 1 0.25
1.25 0.5 0
2.5 1 0.25
1.5 0.5 0
2.75 1 0.25
1.75 0.5 0
3 1 0.25
2 0.5 0
3.25 1 0.25
2.25 0.5 0
3.5 1 0.25
2.5 0.5 0
3.75 1 0.25
2.75 0.5 0
1.75 0.5 1
3 0.5 0
4 0.75 0.25
3.25 0.5 0
3 0 1
3.5 0.5 0
2 0 1
3.75 0.5 0
0 1 0
0 0.75 0
4 0.5 0.75
3.75 0.75 1
0.25 1 0
0.25 0.75 0
0.5 1 0
0.5 0.75 0
0.75 1 0
0.75 0.75 0
1 1 0
1 0.75 0
1.25 1 0
1.25 0.75 0
1.5 1 0
1.5 0.75 0
1.75 1 0
1.75 0.75 0
2 1 0
2 0.75 0
2.25 1 0
2.25 0.75 0
2.5 1 0
2.5 0.75 0
2.75 1 0
2.75 0.75 0
3 1 0
3 0.75 0
3.25 1 0
3.25 0.75 0
3.5 1 0
3.5 0.75 0
3.75 1 0
3.75 0.75 0
2.75 0.5 1
0 0 0.25
4 0 1
4 0 0.75
1.25 0.75 1
0.25 0 0.25
1.5 1 0.75
0.5 0 0.25
1.75 1 0.75
0.75 0 0.25
2 1 0.75
1 0 0.25
2.25 1 0.75
1.25 0 0.25
2.5 1 0.75
1.5 0 0.25
2.75 1 0.75
1.75 0 0.25
3 1 0.75
2 0 0.25
3.25 1 0.75
2.25 0 0.25
3.5 1 0.75
2.5 0 0.25
3.75 1 0.75
2.75 0 0.25
3 0 0.25
4 0.75 0.75
3.25 0 0.25
3.5 0 0.25
4 1 1
3.75 0 0.25
2.75 0.75 1
0 0.25 0.25
1.75 0 1
0.25 0.25 0.25
0.5 0.25 0.25
0.75 0.25 0.25
1 0.25 0.25
1.25 0.25 0.25
1.5 0.25 0.25
1.75 0.25 0.25
2 0.25 0.25
2.25 0.25 0.25
2.5 0.25 0.25
2.75 0.25 0.25
3 0.25 0.25
3.25 0.25 0.25
3.5 0.25 0.25
3.75 0.25 0.25
0 0.5 0.25
4 1 0.25
0.25 0.5 0.25
0.5 0.5 0.25
0.75 0.5 0.25
1 0.5 0.25
1.25 0.5 0.25
1.5 0.5 0.25
1.75 0.5 0.25
2 0.5 0.25
2.25 0.5 0.25
2.5 0.5 0.25
2.75 0.5 0.25
3 0.5 0.25
3.25 0.5 0.25
3.5 0.5 0.25
3.75 0.5 0.25
0 0.75 0.25
0.25 1 0.25
0.25 0.75 0.25
0.5 0.75 0.25
0.75 0.75 0.25
1 0.75 0.25
1.25 0.75 0.25
1.5 0.75 0.25
1.75 0.75 0.25
2 0.75 0.25
2.25 0.75 0.25
2.5 0.75 0.25
2.75 0.75 0.25
3 0.75 0.25
3.25 0.75 0.25
3.5 0.75 0.25
3.75 0.75 0.25
0 0 0.5
3.25 0 1
2.75 0 1
0.25 0.75 1
0.25 0 0.5
0.5 1 1
0.5 0 0.5
0.75 1 1
0.75 0 0.5
1 1 1
1 0 0.5
1.25 1 1
1.25 0 0.5
1.5 1 1
1.5 0 0.5
1.75 1 1
1.75 0 0.5
2 1 1
2 0 0.5
2.25 1 1
2.25 0 0.5
2.5 1 1
2.5 0 0.5
2.75 1 1
2.75 0 0.5
3 1 1
3 0 0.5
3.25 1 1
3.25 0 0.5
3.5 1 1
3.5 0 0.5
3.75 1 1
3.75 0 0.5
1.75 0.75 1
0 0.25 0.5
0 0 1
0.25 0.25 0.5
0.5 0.25 0.5
0.75 0.25 0.5
1 0.25 0.5
1.25 0.25 0.5
1.5 0.25 0.5
1.75 0.25 0.5
2 0.25 0.5
2.25 0.25 0.5
2.5 0.25 0.5
2.75 0.25 0.5
3 0.25 0.5
3.25 0.25 0.5
3.5 0.25 0.5
3.75 0.25 0.5
0 0.5 0.5
4 1 0.5
0.25 0.5 0.5
0.5 0.5 0.5
0.75 0.5 0.5
1 0.5 0.5
1.25 0.5 0.5
1.5 0.5 0.5
1.75 0.5 0.5
2 0.5 0.5
2.25 0.5 0.5
2.5 0.5 0.5
2.75 0.5 0.5
3 0.5 0.5
3.25 0.5 0.5
3.5 0.5 0.5
3.75 0.5 0.5
0 0.75 0.5
0.25 1 0.5
0.25 0.75 0.5
0.5 0.75 0.5
0.75 0.75 0.5
1 0.75 0.5
1.25 0.75 0.5
1.5 0.75 0.5
1.75 0.75 0.5
2 0.75 0.5
2.25 0.75 0.5
2.5 0.75 0.5
2.75 0.75 0.5
3 0.75 0.5
3.25 0.75 0.5
3.5 0.75 0.5
3.75 0.75 0.5
0 0 0.75
1.25 0 1
0.75 0 1
0 0.75 1
0.25 0 0.75
0.5 0.25 1
0.5 0 0.75
0.75 0.25 1
0.75 0 0.75
1 0.25 1
1 0 0.75
1.25 0.25 1
1.25 0 0.75
1.5 0.25 1
1.5 0 0.75
1.75 0.25 1
1.75 0 0.75
2 0.25 1
2 0 0.75
2.25 0.25 1
2.25 0 0.75
2.5 0.25 1
2.5 0 0.75
2.75 0.25 1
2.75 0 0.75
3 0.25 1
3 0 0.75
3.25 0.25 1
3.25 0 0.75
3.5 0.25 1
3.5 0 0.75
3.75 0.25 1
3.75 0 0.75
0.75 0.75 1
0 0.25 0.75
0.25 0.25 0.75
0.5 0.25 0.75
0.75 0.25 0.75
1 0.25 0.75
1.25 0.25 0.75
1.5 0.25 0.75
1.75 0.25 0.75
2 0.25 0.75
2.25 0.25 0.75
2.5 0.25 0.75
2.75 0.25 0.75
3 0.25 0.75
3.25 0.25 0.75
3.5 0.25 0.75
3.75 0.25 0.75
0 0.5 0.75
4 1 0.75
0.25 0.5 0.75
0.5 0.5 0.75
0.75 0.5 0.75
1 0.5 0.75
1.25 0.5 0.75
1.5 0.5 0.75
1.75 0.5 0.75
2 0.5 0.75
2.25 0.5 0.75
2.5 0.5 0.75
2.75 0.5 0.75
3 0.5 0.75
3.25 0.5 0.75
3.5 0.5 0.75
3.75 0.5 0.75
0 0.75 0.75
0.25 1 0.75
0.25 0.75 0.75
0.5 0.75 0.75
0.75 0.75 0.75
1 0.75 0.75
1.25 0.75 0.75
1.5 0.75 0.75
1.75 0.75 0.75
2 0.75 0.75
2.25 0.75 0.75
2.5 0.75 0.75
2.75 0.75 0.75
3 0.75 0.75
3.25 0.75 0.75
3.5 0.75 0.75
3.75 0.75 0.75

CELLS 1281 5120
OFFSETS vtktypeint64
0 4 8 12 16 20 24 28 32 36 40 44 48 52 56 60 64 68 72 76 80 84 88 92 96 100 104 108 112 116 120 124 128 132 136 140 144 148 152 156 160 164 168 172 176 180 184 188 192 196 200 204 208 212 216 220 224 228 232 236 240 244 248 252 256 260 264 268 272 276 280 284 288 292 296 300 304 308 312 316 320 324 328 332 336 340 344 348 352 356 360 364 368 372 376 380 384 388 392 396 400 404 408 412 416 420 424 428 432 436 440 444 448 452 456 460 464 468 472 476 480 484 488 492 496 500 504 508 512 516 520 524 528 532 536 540 544 548 552 556 560 564 568 572 576 580 584 588 592 596 600 604 608 612 616 620 624 628 632 636 640 644 648 652 656 660 664 668 672 676 680 684 688 692 696 700 704 708 712 716 720 724 728 732 736 740 744 748 752 756 760 764 768 772 776 780 784 788 792 796 800 804 808 812 816 820 824 828 832 836 840 844 848 852 856 860 864 868 872 876 880 884 888 892 896 900 904 908 912 916 920 924 928 932 936 940 944 948 952 956 960 964 968 972 976 980 984 988 992 996 1000 1004 1008 1012 1016 1020 1024 1028 1032 1036 1040 1044 1048 1052 1056 1060 1064 1068 1072 1076 1080 1084 1088 1092 1096 1100 1104 1108 1112 1116 1120 1124 1128 1132 1136 1140 1144 1148 1152 1156 1160 1164 1168 1172 1176 1180 1184 1188 1192 1196 1200 1204 1208 1212 1216 1220 1224 1228 1232 1236 1240 1244 1248 1252 1256 1260 1264 1268 1272 1276 1280 1284 1288 1292 1296 1300 1304 1308 1312 1316 1320 1324 1328 1332 1336 1340 1344 1348 1352 1356 1360 1364 1368 1372 1376 1380 1384 1388 1392 1396 1400 1404 1408 1412 1416 1420 1424 1428 1432 1436 1440 1444 1448 1452 1456 1460 1464 1468 1472 1476 1480 1484 1488 1492 1496 1500 1504 1508 1512 1516 1520 1524 1528 1532 1536 1540 1544 1548 1552 1556 1560 1564 1568 1572 1576 1580 1584 1588 1592 1596 1600 1604 1608 1612 1616 1620 1624 1628 1632 1636 1640 1644 1648 1652 1656 1660 1664 1668 1672 1676 1680 1684 1688 1692 1696 1700 1704 1708 1712 1716 1720 1724 1728 1732 1736 1740 1744 1748 1752 1756 1760 1764 1768 1772 1776 1780 1784 1788 1792 1796 1800 1804 1808 1812 1816 1820 1824 1828 1832 1836 1840 1844 1848 1852 1856 1860 1864 1868 1872 1876 1880 1884 1888 1892 1896 1900 1904 1908 1912 1916 1920 1924 1928 1932 1936 1940 1944 1948 1952 1956 1960 1964 1968 1972 1976 1980 1984 1988 1992 1996 2000 2004 2008 2012 2016 2020 2024 2028 2032 2036 2040 2044 2048 2052 2056 2060 2064 2068 2072 2076 2080 2084 2088 2092 2096 2100 2104 2108 2112 2116 2120 2124 2128 2132 2136 2140 2144 2148 2152 2156 2160 2164 2168 2172 2176 2180 2184 2188 2192 2196 2200 2204 2208 2212 2216 2220 2224 2228 2232 2236 2240 2244 2248 2252 2256 2260 2264 2268 2272 2276 2280 2284 2288 2292 2296 2300 2304 2308 2312 2316 2320 2324 2328 2332 2336 2340 2344 2348 2352 2356 2360 2364 2368 2372 2376 2380 2384 2388 2392 2396 2400 2404 2408 2412 2416 2420 2424 2428 2432 2436 2440 2444 2448 2452 2456 2460 2464 2468 2472 2476 2480 2484 2488 2492 2496 2500 2504 2508 2512 2516 2520 2524 2528 2532 2536 2540 2544 2548 2552 2556 2560 2564 2568 2572 2576 2580 2584 2588 2592 2596 2600 2604 2608 2612 2616 2620 2624 2628 2632 2636 2640 2644 2648 2652 2656 2660 2664 2668 2672 2676 2680 2684 2688 2692 2696 2700 2704 2708 2712 2716 2720 2724 2728 2732 2736 2740 2744 2748 2752 2756 2760 2764 2768 2772 2776 2780 2784 2788 2792 2796 2800 2804 2808 2812 2816 2820 2824 2828 2832 2836 2840 2844 2848 2852 2856 2860 2864 2868 2872 2876 2880 2884 2888 2892 2896 2900 2904 2908 2912 2916 2920 2924 2928 2932 2936 2940 2944 2948 2952 2956 2960 2964 2968 2972 2976 2980 2984 2988 2992 2996 3000 3004 3008 3012 3016 3020 3024 3028 3032 3036 3040 3044 3048 3052 3056 3060 3064 3068 3072 3076 3080 3084 3088 3092 3096 3100 3104 3108 3112 3116 3120 3124 3128 3132 3136 3140 3144 3148 3152 3156 3160 3164 3168 3172 3176 3180 3184 3188 3192 3196 3200 3204 3208 3212 3216 3220 3224 3228 3232 3236 3240 3244 3248 3252 3256 3260 3264 3268 3272 3276 3280 3284 3288 3292 3296 3300 3304 3308 3312 3316 3320 3324 3328 3332 3336 3340 3344 3348 3352 3356 3360 3364 3368 3372 3376 3380 3384 3388 3392 3396 3400 3404 3408 3412 3416 3420 3424 3428 3432 3436 3440 3444 3448 3452 3456 3460 3464 3468 3472 3476 3480 3484 3488 3492 3496 3500 3504 3508 3512 3516 3520 3524 3528 3532 3536 3540 3544 3548 3552 3556 3560 3564 3568 3572 3576 3580 3584 3588 3592 3596 3600 3604 3608 3612 3616 3620 3624 3628 3632 3636 3640 3644 3648 3652 3656 3660 3664 3668 3672 3676 3680 3684 3688 3692 3696 3700 3704 3708 3712 3716 3720 3724 3728 3732 3736 3740 3744 3748 3752 3756 3760 3764 3768 3772 3776 3780 3784 3788 3792 3796 3800 3804 3808 3812 3816 3820 3824 3828 3832 3836 3840 3844 3848 3852 3856 3860 3864 3868 3872 3876 3880 3884 3888 3892 3896 3900 3904 3908 3912 3916 3920 3924 3928 3932 3936 3940 3944 3948 3952 3956 3960 3964 3968 3972 3976 3980 3984 3988 3992 3996 4000 4004 4008 4012 4016 4020 4024 4028 4032 4036 4040 4044 4048 4052 4056 4060 4064 4068 4072 4076 4080 4084 4088 4092 4096 4100 4104 4108 4112 4116 4120 4124 4128 4132 4136 4140 4144 4148 4152 4156 4160 4164 4168 4172 4176 4180 4184 4188 4192 4196 4200 4204 4208 4212 4216 4220 4224 4228 4232 4236 4240 4244 4248 4252 4256 4260 4264 4268 4272 4276 4280 4284 4288 4292 4296 4300 4304 4308 4312 4316 4320 4324 4328 4332 4336 4340 4344 4348 43
[...]
POINT_DATA 425
SCALARS weights float 1
LOOKUP_TABLE default
13.0208 2.60417 1.30208 6.51042 13.0208 2.60417 13.0208 3.25521 2.60417 2.60417 2.60417 6.51042 13.0208 2.60417 2.60417 1.30208 6.51042 6.51042 2.60417 6.51042 2.60417 1.30208 1.30208 1.30208 2.60417 13.0208 6.51042 2.60417 2.60417 13.0208 1.30208 6.51042 13.0208 2.60417 6.51042 1.30208 1.30208 13.0208 1.30208 13.0208 13.0208 13.0208 6.51042 13.0208 2.60417 2.60417 1.30208 6.51042 2.60417 2.60417 6.51042 13.0208 6.51042 6.51042 1.30208 6.51042 3.25521 1.30208 6.51042 13.0208 2.60417 2.60417 1.30208 13.0208 13.0208 2.60417 6.51042 3.25521 1.30208 1.30208 13.0208 13.0208 2.60417 1.30208 2.60417 2.60417 13.0208 13.0208 13.0208 2.60417 1.30208 13.0208 1.30208 2.60417 2.60417 13.0208 2.60417 2.60417 6.51042 13.0208 1.30208 2.60417 3.25521 13.0208 2.60417 1.30208 13.0208 13.0208 2.60417 2.60417 13.0208 2.60417 1.30208 13.0208 13.0208 6.51042 13.0208 2.60417 13.0208 2.60417 2.60417 13.0208 13.0208 2.60417 2.60417 13.0208 13.0208 2.60417 2.60417 13.0208 13.0208 2.60417 2.60417 13.0208 13.0208 2.60417 2.60417 13.0208 13.0208 2.60417 2.60417 13.0208 13.0208 2.60417 6.51042 13.0208 6.51042 2.60417 3.25521 1.30208 2.60417 13.0208 1.30208 13.0208 6.51042 2.60417 1.30208 13.0208 6.51042 2.60417 1.30208 13.0208 6.51042 2.60417 1.30208 13.0208 6.51042 2.60417 1.30208 13.0208 6.51042 2.60417 1.30208 13.0208 6.51042 2.60417 1.30208 13.0208 6.51042 2.60417 1.30208 13.0208 2.60417 1.30208 3.25521 1.30208 13.0208 13.0208 2.60417 2.60417 13.0208 13.0208 2.60417 2.60417 13.0208 13.0208 2.60417 2.60417 13.0208 13.0208 2.60417 2.60417 13.0208 13.0208 2.60417 2.60417 13.0208 13.0208 2.60417 13.0208 13.0208 2.60417 3.25521 13.0208 13.0208 13.0208 1.30208 5.20833 26.0417 5.20833 26.0417 5.20833 26.0417 5.20833 26.0417 5.20833 26.0417 5.20833 26.0417 5.20833 26.0417 5.20833 2.60417 1.30208 26.0417 5.20833 26.0417 5.20833 26.0417 5.20833 26.0417 5.20833 26.0417 5.20833 26.0417 5.20833 26.0417 5.20833 26.0417 13.0208 13.0208 5.20833 26.0417 5.20833 26.0417 5.20833 26.0417 5.20833 26.0417 5.20833 26.0417 5.20833 26.0417 5.20833 26.0417 5.20833 6.51042 1.30208 1.30208 13.0208 2.60417 6.51042 13.0208 1.30208 2.60417 6.51042 13.0208 1.30208 2.60417 6.51042 13.0208 1.30208 2.60417 6.51042 13.0208 1.30208 2.60417 6.51042 13.0208 1.30208 2.60417 6.51042 13.0208 1.30208 2.60417 6.51042 13.0208 1.30208 2.60417 13.0208 2.60417 3.25521 26.0417 5.20833 26.0417 5.20833 26.0417 5.20833 26.0417 5.20833 26.0417 5.20833 26.0417 5.20833 26.0417 5.20833 26.0417 13.0208 6.51042 5.20833 26.0417 5.20833 26.0417 5.20833 26.0417 5.20833 26.0417 5.20833 26.0417 5.20833 26.0417 5.20833 26.0417 5.20833 2.60417 2.60417 26.0417 5.20833 26.0417 5.20833 26.0417 5.20833 26.0417 5.20833 26.0417 5.20833 26.0417 5.20833 26.0417 5.20833 26.0417 1.30208 1.30208 1.30208 1.30208 13.0208 2.60417 2.60417 13.0208 13.0208 2.60417 2.60417 13.0208 13.0208 2.60417 2.60417 13.0208 13.0208 2.60417 2.60417 13.0208 13.0208 2.60417 2.60417 13.0208 13.0208 2.60417 2.60417 13.0208 13.0208 2.60417 2.60417 13.0208 13.0208 13.0208 13.0208 5.20833 26.0417 5.20833 26.0417 5.20833 26.0417 5.20833 26.0417 5.20833 26.0417 5.20833 26.0417 5.20833 26.0417 5.20833 2.60417 1.30208 26.0417 5.20833 26.0417 5.20833 26.0417 5.20833 26.0417 5.20833 26.0417 5.20833 26.0417 5.20833 26.0417 5.20833 26.0417 13.0208 13.0208 5.20833 26.0417 5.20833 26.0417 5.20833 26.0417 5.20833 26.0417 5.20833 26.0417 5.20833 26.0417 5.20833 26.0417 5.20833 
VECTORS u float
-0.364742 -2.30334 0.00289714  -0.125842 -1.73202 0.00220346  -0.718381 -2.59405 0.00266874  -0.146196 -0.08935 0.0304708  -0.129764 -0.667488 -0.00163263  -0.0120573 -0.224419 -0.000765026  -0.0276524 -0.0246189 0.0128472  0 0 0  -0.447903 -2.49126 0.00302017  -0.283006 -2.11406 0.00267762  0.0047209 -0.0367827 -6.56247e-05  -1.2777 -2.34488 0.00175709  -0.0375167 -0.354969 -0.00107116  -0.7177 -2.59456 0.00269943  -1.09055 -2.42868 0.00180519  -0.0795425 -0.0368184 -0.0205896  -0.438487 -0.565237 0.0138608  -0.287471 -0.292593 0.0220428  0.0140591 -0.721734 -0.00977659  -0.145759 -0.089514 -0.0302743  0.187546 -0.445326 -0.0119913  0.0771278 -0.0734235 -0.02572  -0.2175 -0.18575 -0.0238407  -0.682895 -1.05627 0.00565934  -0.331074 -1.19851 -0.000728428  0.174371 -0.294821 0.0144287  -0.286856 -0.292622 -0.0217045  -0.080422 -0.507116 -0.00157493  0.182194 -0.612219 0.000752449  -1.09018 -2.42847 0.00210783  -0.362283 -0.424724 -0.0153828  -0.76698 -1.23188 0.00447166  -0.736933 -2.1368 0.00099802  -0.231208 -1.45899 -0.0031054  -0.437452 -0.564813 -0.0126563  -1.27671 -2.34463 0.00144115  -1.08898 -2.42763 0.00211905  0.18537 -0.609271 -0.00983548  -0.517586 -0.721494 -0.00876498  -0.406962 -1.38302 -0.000377774  0.174006 -0.294706 -0.0135713  -0.158483 -1.2696 -0.00435185  -0.597935 -0.883785 -0.00698061  -0.257461 -1.01586 -0.00106525  -0.0931084 -1.08292 -0.00613064  0.0729104 -0.393366 -0.0136296  -0.681756 -1.05596 -0.00438141  -1.10874 -1.97049 0.00205374  0.0649833 -0.134557 -0.0164925  -0.551889 -2.21923 0.00101876  -0.765721 -1.23177 -0.00313232  0.189162 -0.446157 0.000635505  0 0 0  -0.902893 -2.51066 0.00270662  -0.850684 -1.41277 -0.0016401  0 0 0  0 0 0  0 0 0  -0.936083 -1.59567 -0.000497695  -0.569111 -1.75891 0.000472426  0.169866 -0.299717 0.000413001  -0.386998 -1.8396 -0.000719726  -1.02214 -1.78239 0.000171869  -0.0528796 -1.54026 0.00190139  -0.20195 -1.92376 0.00251013  0.130952 -0.173178 -0.0146925  -1.10747 -1.96998 0.000760951  -1.27535 -2.34427 0.00116736  -0.0797964 -0.036712 0.0205195  -1.19179 -2.15732 0.00100908  0.0737424 -1.15848 0.00148159  0.161749 -0.787325 0.000900924  -0.652808 -1.94797 0.000754356  0 0 0  0.012928 -1.34896 0.00167423  0.1222 -0.971066 0.00120151  -0.903687 -2.51192 0.00202274  -0.0273508 -0.0247609 -0.0129644  0.132762 -0.172988 0.000241399  -0.0634938 -0.101974 -0.0147086  -1.09026 -2.4283 0.00143182  -0.103242 -0.199933 -0.013104  0 0 0  -0.156444 -0.326831 -0.0100902  -0.903402 -2.51137 0.00235382  -0.213027 -0.464063 -0.00715483  0.131192 -0.173266 0.0152269  -0.279517 -0.61889 -0.00509851  -0.904126 -2.5114 0.00200319  -0.348812 -0.780276 -0.00336755  -1.19299 -2.1578 0.00176966  -0.424794 -0.951889 -0.00208995  -0.530761 -2.67685 0.0032091  -0.502535 -1.12743 -0.00111685  -0.584087 -1.30878 -8.13484e-05  -0.717046 -2.59338 0.00274019  -0.666352 -1.49181 0.000779829  0.00485921 -0.109951 -0.000475645  -0.750687 -1.67799 0.000869797  0.188172 -0.44515 0.0131853  -0.835749 -1.86548 0.00123964  -0.920947 -2.05368 0.00173577  0 0 0  -1.00525 -2.24104 0.00217706  -0.468425 -2.02987 0.00053215  0 0 0  -1.09064 -2.42856 0.0013926  -0.82065 -2.32433 0.00149369  0.186208 -0.609043 0.0113096  0.00499728 -0.0368791 0.000155478  0.160995 -0.786457 0.00997755  0.00536633 -0.110099 0.000686822  0.125104 -0.969293 0.00853968  -0.0113679 -0.224523 0.00145219  0.0733051 -1.15769 0.00744671  -0.0366361 -0.354997 0.00196972  0.0149643 -1.34785 0.00621927  -0.0794605 -0.507104 0.00270476  -0.0529342 -1.53946 0.00561953  -0.128554 -0.667384 0.00301225  -0.124823 -1.73149 0.00496939  -0.190287 -0.839465 0.00314598  -0.202311 -1.92284 0.00440171  -0.256005 -1.01573 0.00302955  -0.28237 -2.11397 0.00390372  -0.329661 -1.19832 0.00299553  -0.364443 -2.30303 0.00364116  -0.405487 -1.38269 0.00311785  -0.447122 -2.49149 0.0035167  -0.485781 -1.57013 0.00301349  -0.191513 -0.839515 -0.00133151  -0.567024 -1.75828 0.00266956  -0.716869 -2.59451 0.00275198  -0.651144 -1.94735 0.00251356  -0.937516 -1.59652 0.00232041  -0.735532 -2.13616 0.00280268  -0.598931 -0.884124 0.00825131  -0.819521 -2.3239 0.00271091  0 0 0  0 0 0  -0.904057 -2.51149 0.00201225  -0.634839 -2.40713 0.00185227  0.077362 -0.0735903 0.0261006  0.0356666 -0.0447761 0.0148103  0.138348 -0.161613 0.0321363  0.0654432 -0.134689 0.0169171  0.175081 -0.288897 0.0280145  0.0814776 -0.24948 0.016168  0.194524 -0.436237 0.0261321  0.0738449 -0.393282 0.0145507  0.186838 -0.604257 0.0213985  0.054029 -0.550184 0.0129935  0.166047 -0.780696 0.0191941  0.0152054 -0.721593 0.0112904  0.12575 -0.965816 0.015438  -0.0318041 -0.898713 0.00977075  0.0768361 -1.15419 0.0134572  -0.0919279 -1.08284 0.00837738  0.0154045 -1.34552 0.01065  -0.157002 -1.26924 0.00712804  -0.0506816 -1.53742 0.00941538  -0.229605 -1.45846 0.00621659  -0.124725 -1.72959 0.00745009  -0.305185 -1.64845 0.00524191  -0.201304 -1.92122 0.00628751  -0.385225 -1.83868 0.00451833  -0.28218 -2.11237 0.00521302  -0.466948 -2.02893 0.0038622  -0.364119 -2.30234 0.00431869  -0.550368 -2.21841 0.00368286  -0.447501 -2.49021 0.00376359  -0.633839 -2.40672 0.00325894  -0.487352 -1.57056 -0.000137687  0 0 0  -1.2768 -2.34465 0.00164068  -1.2773 -2.34493 0.00168079  0.0529653 -0.550221 -0.0117697  -0.0731636 -0.0344788 -0.00943775  0.160227 -0.786478 -0.00807524  -0.150709 -0.105446 -0.0141202  0.124251 -0.969239 -0.00614387  -0.221189 -0.188522 -0.0130032  0.0726266 -1.1577 -0.00475162  -0.294762 -0.302483 -0.0108212  0.0140197 -1.34818 -0.00294256  -0.366881 -0.426473 -0.00810944  -0.0539043 -1.53986 -0.00178945  -0.443472 -0.57068 -0.00630607  -0.12554 -1.73183 -0.000637412  -0.520862 -0.722543 -0.0044186  -0.203146 -1.92316 0.000554502  -0.602039 -0.887016 -0.00321808  -0.282817 -2.11391 0.00161725  -0.684008 -1.05658 -0.00195503  -0.365417 -2.30329 0.0020467  -0.767839 -1.23352 -0.00121911  -0.448064 -2.49138 0.00252289  -0.852023 -1.41336 -0.000629172  -0.937105 -1.59685 8.9258e-05  -0.717546 -2.59469 0.00263524  -1.02284 -1.78259 0.000347197  -1.10866 -1.97044 0.000910848  -0.532023 -2.67765 0.00332534  -1.19334 -2.15805 0.00116149  -0.306717 -1.64897 -0.00201273  0 0 0  -0.518578 -0.72189 0.00992095  -0.0304195 -0.0390061 -0.0056394  -0.0636231 -0.106023 -0.00761393  -0.111026 -0.211934 -0.00645687  -0.160527 -0.330434 -0.00516619  -0.220325 -0.471534 -0.0034669  -0.282956 -0.621106 -0.00226812  -0.353911 -0.784582 -0.00133491  -0.427227 -0.953209 -0.000588819  -0.505835 -1.12996 -9.69172e-05  -0.585708 -1.30962 0.000405133  -0.668298 -1.49332 0.000868946  -0.751185 -1.67846 0.00101459  -0.83647 -1.86622 0.00127763  -0.92175 -2.0545 0.00175542  -1.00621 -2.24165 0.00197446  0 0 0  -0.530551 -2.67788 0.00343668  0.00368729 -0.0388844 -4.673e-05  -0.000892043 -0.123646 0.000236422  -0.0133513 -0.229811 0.000589043  -0.0442181 -0.364778 0.0010615  -0.0820814 -0.510878 0.00162312  -0.134596 -0.673421 0.00187245  -0.192261 -0.841989 0.00207299  -0.260069 -1.01939 0.00205123  -0.331154 -1.19995 0.00201967  -0.407984 -1.38482 0.00214106  -0.4866 -1.57106 0.00226218  -0.568406 -1.75928 0.00203499  -0.651399 -1.94822 0.00207773  -0.735965 -2.13686 0.00238761  -0.819806 -2.32464 0.00255299  0 0 0  0.0693304 -0.0760171 0.0109314  0.0341062 -0.0579081 0.00645211  0.06408 -0.140212 0.00815135  0.0747499 -0.260753 0.00795311  0.0722448 -0.398864 0.00737542  0.0481377 -0.557837 0.00666228  0.0136812 -0.725679 0.00599959  -0.0362641 -0.903608 0.00530809  -0.0930653 -1.08561 0.00477493  -0.159766 -1.27228 0.00419942  -0.230204 -1.46027 0.00381085  -0.306811 -1.65011 0.00358778  -0.385497 -1.84003 0.00323024  -0.467729 -2.03009 0.00303468  -0.550291 -2.21926 0.00308508  -0.633891 -2.40746 0.00286493  0 0 0  -1.02358 -1.78305 0.0020299  -0.852236 -1.41319 0.00307679  0.035446 -0.0446582 -0.0143991  -0.0789904 -0.0452197 -5.37932e-05  0.137914 -0.161414 -0.0314862  -0.149556 -0.102146 0.000117302  0.174417 -0.288783 -0.0270725  -0.224505 -0.196124 0.000178277  0.193414 -0.436316 -0.0249534  -0.295341 -0.301312 0.000281036  0.185634 -0.604223 -0.0198917  -0.3698 -0.431247 0.000338972  0.16459 -0.780644 -0.0171615  -0.444192 -0.570266 0.000235677  0.124572 -0.965704 -0.0131139  -0.52282 -0.725364 0.000496089  0.07585 -1.1541 -0.0110425  -0.602399 -0.88685 0.000580549  0.0139644 -1.34584 -0.00743407  -0.684989 -1.05808 0.000707328  -0.0524237 -1.53801 -0.00555086  -0.768325 -1.23342 0.000711083  -0.126222 -1.73035 -0.00326985  -0.853016 -1.41406 0.000738025  -0.202884 -1.92259 -0.00134873  -0.937938 -1.59703 0.000891209  -0.283726 -2.1132 0.000466585  -1.02382 -1.78329 0.000966072  -0.365826 -2.30303 0.00126576  -1.10928 -1.97076 0.00123221  -0.448802 -2.49059 0.00220954  -1.19367 -2.15799 0.00144315  -0.0327988 -0.898724 -0.00773317  0 0 0  0 0 0  -0.0266802 -0.033299 2.44379e-06  -0.0676959 -0.114044 0.000138521  -0.110116 -0.210443 0.000335038  -0.164258 -0.335766 0.000321984  -0.220516 -0.471106 0.000381708  -0.286052 -0.624456 0.000559211  -0.354045 -0.784454 0.000718236  -0.429052 -0.955087 0.00080657  -0.505771 -1.12981 0.000940144  -0.586882 -1.31051 0.0010646  -0.668878 -1.49315 0.00107265  -0.75274 -1.6792 0.00120646  -0.837443 -1.8665 0.00137681  -0.922455 -2.05451 0.00158167  -1.00674 -2.24189 0.00180644  0 0 0  -0.531207 -2.67846 0.00369549  0.00248024 -0.0454592 1.9908e-05  0.000739574 -0.121323 0.000116289  -0.0176577 -0.235739 0.000317633  -0.0435023 -0.364509 0.000383317  -0.0858778 -0.514869 0.000530899  -0.134521 -0.673615 0.000808358  -0.194941 -0.844317 0.0009197  -0.259744 -1.01951 0.00107813  -0.332593 -1.20138 0.00110114  -0.407738 -1.38527 0.00117737  -0.487543 -1.57203 0.00140142  -0.568748 -1.75996 0.00131279  -0.652569 -1.94862 0.00161344  -0.736629 -2.1372 0.00194007  -0.820331 -2.3248 0.0020923  0 0 0  0.0727343 -0.0820307 0.000149012  0.0316145 -0.0522243 0.000145018  0.060051 -0.146159 0.000168145  0.0757959 -0.260637 0.000311434  0.0682273 -0.403425 0.000413477  0.0489833 -0.55853 0.000534773  0.0106813 -0.728509 0.000732422  -0.0356573 -0.90424 0.000900865  -0.0950727 -1.08722 0.00117135  -0.159595 -1.27286 0.00131124  -0.231625 -1.46137 0.00154573  -0.306501 -1.65068 0.0019244  -0.386479 -1.84067 0.00191879  -0.468129 -2.03047 0.00217658  -0.551197 -2.21953 0.00231755  -0.634274 -2.40763 0.00238758  0 0 0  -0.363066 -0.424743 0.0162483  -0.218023 -0.185654 0.0241493  0 0 0  -0.073442 -0.0344681 0.00925982  -0.063945 -0.101816 0.0149373  -0.151035 -0.105362 0.0143229  -0.103761 -0.199864 0.0134141  -0.221577 -0.188542 0.0133136  -0.157103 -0.32685 0.0107181  -0.295054 -0.302451 0.0112978  -0.213779 -0.464144 0.00805378  -0.367288 -0.42667 0.00891316  -0.280626 -0.619115 0.00632393  -0.444093 -0.570939 0.00714952  -0.35004 -0.780512 0.00486946  -0.521508 -0.722729 0.00549299  -0.426067 -0.952046 0.00382149  -0.602505 -0.887175 0.00443369  -0.503838 -1.12754 0.00311446  -0.684248 -1.05653 0.00325137  -0.585475 -1.30895 0.00236678  -0.768463 -1.23341 0.002644  -0.668085 -1.49222 0.0016892  -0.852929 -1.41309 0.00203913  -0.752436 -1.67867 0.00168645  -0.938319 -1.59714 0.00171727  -0.83721 -1.86606 0.00144875  -1.02403 -1.78301 0.00167328  -0.922228 -2.05421 0.00141454  -1.10934 -1.97068 0.0016917  -1.0063 -2.24154 0.00109327  -1.19397 -2.15838 0.00167751  0.0807638 -0.249392 -0.0154236  0 0 0  -0.0306148 -0.0389079 0.00558108  -0.0639959 -0.105905 0.0078547  -0.111323 -0.211901 0.00691408  -0.160746 -0.330408 0.00576943  -0.220806 -0.47163 0.00434655  -0.28371 -0.621368 0.00340551  -0.354655 -0.784669 0.00278193  -0.427985 -0.953239 0.00224429  -0.506358 -1.12994 0.00201923  -0.586119 -1.30959 0.00176954  -0.669001 -1.49345 0.00141251  -0.752328 -1.67891 0.00143838  -0.83743 -1.86657 0.00140005  -0.922569 -2.05474 0.00142938  -1.0067 -2.24176 0.00144982  0 0 0  -0.531304 -2.67808 0.00332445  0.00347573 -0.0386766 4.30942e-05  -0.00118542 -0.123544 2.54512e-05  -0.0136647 -0.229716 2.99215e-05  -0.0446628 -0.364851 -0.000252903  -0.082527 -0.511006 -0.000548899  -0.135266 -0.673612 -0.000404298  -0.192976 -0.842075 -0.000196874  -0.260759 -1.01955 1.13845e-05  -0.331716 -1.20016 0.000177622  -0.408497 -1.38513 0.000414193  -0.487082 -1.57153 0.000608504  -0.569256 -1.75976 0.000906527  -0.652196 -1.94846 0.00113583  -0.736837 -2.13719 0.00144565  -0.820155 -2.32456 0.00166881  0 0 0  0.0692134 -0.0758642 -0.0106373  0.0339673 -0.0577636 -0.00615406  0.0638022 -0.140124 -0.00782704  0.0743554 -0.260668 -0.00727427  0.0715175 -0.399083 -0.00657493  0.0474882 -0.558003 -0.00551796  0.0131184 -0.725813 -0.0045408  -0.0369135 -0.903664 -0.0033794  -0.0938888 -1.08563 -0.002455  -0.160609 -1.27246 -0.00150317  -0.231246 -1.4606 -0.000736058  -0.307551 -1.65038 -4.60744e-05  -0.38634 -1.84043 0.000591099  -0.468373 -2.03028 0.00129133  -0.551341 -2.21969 0.001486  -0.634512 -2.40752 0.00210392  
