# vtk DataFile Version 5.1
vtk output
ASCII

DATASET UNSTRUCTURED_GRID
POINTS 573 float
4 0.5 0
4 0 0.5
1 0 1
1 1 1
1 0.5 1
0 0 0
0 1 1
4 0 1
2 1 0.5
4 0.5 0.5
1 0 0
2 0 1
0 0.5 1
2 0 0
4 0 0
4 0.5 1
4 1 1
3 0 0
0 0 1
2 1 1
0 1 0
0 0.5 0
4 1 0
3 1 1
1 1 0
1 0.5 0
2 1 0
2 0.5 0
3 1 0
3 0.5 0
3 1 0.5
0 0 0.5
3 0 1
4 1 0.5
1 0 0.5
2 0.5 1
2 0 0.5
3 0.5 1
3 0 0.5
0 1 0.5
0 0.5 0.5
1 1 0.5
1 0.5 0.5
2 0.5 0.5
3 0.5 0.5
0 0 0.166667
0 0 0.333333
0 0.166667 0.5
0 0.333333 0.5
0 0.333333 0.333333
0 0.166667 0.166667
0.333333 0 0.166667
0.666667 0 0.333333
0.333333 0 0.5
0.666667 0 0.5
0.333333 0.333333 0.5
0.666667 0.166667 0.5
0.333333 0 0.333333
0.333333 0.166667 0.5
0.333333 0.166667 0.333333
0 0.166667 0.333333
0 0.5 0.333333
0 0.5 0.166667
0 0.333333 0
0 0.166667 0
0.333333 0.5 0.333333
0.666667 0.5 0.166667
0.333333 0.5 0
0.666667 0.5 0
0.333333 0.166667 0
0.666667 0.333333 0
0.333333 0.5 0.166667
0.333333 0.333333 0
0.333333 0.333333 0.166667
0 0.333333 0.166667
0.333333 0 0
0.666667 0 0
1 0 0.166667
1 0 0.333333
1 0.166667 0
1 0.333333 0
1 0.166667 0.333333
1 0.333333 0.166667
0.666667 0.166667 0
1 0.166667 0.166667
0.666667 0.166667 0.166667
0.666667 0 0.166667
1 0.166667 0.5
1 0.333333 0.5
0.666667 0.5 0.5
0.333333 0.5 0.5
1 0.5 0.333333
1 0.5 0.166667
1 0.333333 0.333333
0.666667 0.5 0.333333
0.666667 0.333333 0.333333
0.666667 0.333333 0.5
1.33333 0 0
1.66667 0 0
1.33333 0 0.333333
1.66667 0 0.166667
1.33333 0.333333 0
1.66667 0.166667 0
1.33333 0 0.166667
1.33333 0.166667 0.166667
1.33333 0.166667 0
1.33333 0.166667 0.5
1.66667 0.333333 0.5
1.33333 0.5 0.5
1.66667 0.5 0.5
1.33333 0.5 0.166667
1.66667 0.5 0.333333
1.33333 0.333333 0.5
1.33333 0.5 0.333333
1.33333 0.333333 0.333333
2 0 0.166667
2 0 0.333333
1.66667 0 0.5
1.33333 0 0.5
2 0.166667 0.166667
2 0.333333 0.333333
2 0.166667 0.5
2 0.333333 0.5
2 0.166667 0.333333
1.66667 0.166667 0.5
1.66667 0.166667 0.333333
1.66667 0 0.333333
2 0.5 0.333333
2 0.5 0.166667
1.66667 0.5 0
1.33333 0.5 0
2 0.333333 0
2 0.166667 0
2 0.333333 0.166667
1.66667 0.333333 0
1.66667 0.333333 0.166667
1.66667 0.5 0.166667
2.33333 0 0.166667
2.66667 0 0.333333
2.33333 0 0.5
2.66667 0 0.5
2.33333 0.333333 0.5
2.66667 0.166667 0.5
2.33333 0 0.333333
2.33333 0.166667 0.5
2.33333 0.166667 0.333333
2.33333 0.5 0.333333
2.66667 0.5 0.166667
2.33333 0.5 0
2.66667 0.5 0
2.33333 0.166667 0
2.66667 0.333333 0
2.33333 0.5 0.166667
2.33333 0.333333 0
2.33333 0.333333 0.166667
2.33333 0 0
2.66667 0 0
3 0 0.166667
3 0 0.333333
3 0.166667 0
3 0.333333 0
3 0.166667 0.333333
3 0.333333 0.166667
2.66667 0.166667 0
3 0.166667 0.166667
2.66667 0.166667 0.166667
2.66667 0 0.166667
3 0.166667 0.5
3 0.333333 0.5
2.66667 0.5 0.5
2.33333 0.5 0.5
3 0.5 0.333333
3 0.5 0.166667
3 0.333333 0.333333
2.66667 0.5 0.333333
2.66667 0.333333 0.333333
2.66667 0.333333 0.5
3.33333 0 0
3.66667 0 0
3.33333 0 0.333333
3.66667 0 0.166667
3.33333 0.333333 0
3.66667 0.166667 0
3.33333 0 0.166667
3.33333 0.166667 0.166667
3.33333 0.166667 0
3.33333 0.166667 0.5
3.66667 0.333333 0.5
3.33333 0.5 0.5
3.66667 0.5 0.5
3.33333 0.5 0.166667
3.66667 0.5 0.333333
3.33333 0.333333 0.5
3.33333 0.5 0.333333
3.33333 0.333333 0.333333
4 0 0.166667
4 0 0.333333
3.66667 0 0.5
3.33333 0 0.5
4 0.166667 0.166667
4 0.333333 0.333333
4 0.166667 0.5
4 0.333333 0.5
4 0.166667 0.333333
3.66667 0.166667 0.5
3.66667 0.166667 0.333333
3.66667 0 0.333333
4 0.5 0.333333
4 0.5 0.166667
3.66667 0.5 0
3.33333 0.5 0
4 0.333333 0
4 0.166667 0
4 0.333333 0.166667
3.66667 0.333333 0
3.66667 0.333333 0.166667
3.66667 0.5 0.166667
0 0.666667 0.333333
0 0.833333 0.166667
0 0.833333 0
0 0.666667 0
0.333333 0.833333 0
0.666667 0.666667 0
0.333333 0.666667 0.166667
0.333333 0.666667 0
0 0.666667 0.166667
0 0.666667 0.5
0 0.833333 0.5
0 1 0.333333
0 1 0.166667
0.333333 0.666667 0.5
0.666667 0.833333 0.5
0.333333 1 0.5
0.666667 1 0.5
0.333333 1 0.166667
0.666667 1 0.333333
0.333333 0.833333 0.5
0.333333 1 0.333333
0.333333 0.833333 0.333333
0 0.833333 0.333333
1 0.666667 0.166667
1 0.833333 0.333333
1 0.666667 0.5
1 0.833333 0.5
1 0.666667 0.333333
0.666667 0.666667 0.5
0.666667 0.666667 0.333333
1 1 0.333333
1 1 0.166667
0.666667 1 0
0.333333 1 0
1 0.833333 0
1 0.666667 0
1 0.833333 0.166667
0.666667 0.833333 0
0.666667 0.833333 0.166667
0.666667 1 0.166667
1.33333 0.833333 0.5
1.66667 0.666667 0.5
1.33333 0.666667 0.5
1.33333 0.666667 0.333333
1.33333 1 0.333333
1.66667 1 0.166667
1.33333 1 0
1.66667 1 0
1.33333 0.666667 0
1.66667 0.833333 0
1.33333 1 0.166667
1.33333 0.833333 0
1.33333 0.833333 0.166667
2 0.666667 0
2 0.833333 0
2 0.666667 0.333333
2 0.833333 0.166667
1.66667 0.666667 0
2 0.666667 0.166667
1.66667 0.666667 0.166667
2 0.666667 0.5
2 0.833333 0.5
1.66667 1 0.5
1.33333 1 0.5
2 1 0.333333
2 1 0.166667
2 0.833333 0.333333
1.66667 1 0.333333
1.66667 0.833333 0.333333
1.66667 0.833333 0.5
2.33333 0.833333 0
2.66667 0.666667 0
2.33333 0.666667 0.166667
2.33333 0.666667 0
2.33333 0.666667 0.5
2.66667 0.833333 0.5
2.33333 1 0.5
2.66667 1 0.5
2.33333 1 0.166667
2.66667 1 0.333333
2.33333 0.833333 0.5
2.33333 1 0.333333
2.33333 0.833333 0.333333
3 0.666667 0.166667
3 0.833333 0.333333
3 0.666667 0.5
3 0.833333 0.5
3 0.666667 0.333333
2.66667 0.666667 0.5
2.66667 0.666667 0.333333
3 1 0.333333
3 1 0.166667
2.66667 1 0
2.33333 1 0
3 0.833333 0
3 0.666667 0
3 0.833333 0.166667
2.66667 0.833333 0
2.66667 0.833333 0.166667
2.66667 1 0.166667
3.33333 0.833333 0.5
3.66667 0.666667 0.5
3.33333 0.666667 0.5
3.33333 0.666667 0.333333
3.33333 1 0.333333
3.66667 1 0.166667
3.33333 1 0
3.66667 1 0
3.33333 0.666667 0
3.66667 0.833333 0
3.33333 1 0.166667
3.33333 0.833333 0
3.33333 0.833333 0.166667
4 0.666667 0
4 0.833333 0
4 0.666667 0.333333
4 0.833333 0.166667
3.66667 0.666667 0
4 0.666667 0.166667
3.66667 0.666667 0.166667
4 0.666667 0.5
4 0.833333 0.5
3.66667 1 0.5
3.33333 1 0.5
4 1 0.333333
4 1 0.166667
4 0.833333 0.333333
3.66667 1 0.333333
3.66667 0.833333 0.333333
3.66667 0.833333 0.5
0 0 0.666667
0 0 0.833333
0 0.166667 0.833333
0 0.333333 0.666667
0.333333 0 0.833333
0.666667 0 0.666667
0.333333 0 0.666667
0.333333 0.166667 0.666667
0 0.166667 0.666667
0 0.166667 1
0 0.333333 1
0 0.5 0.833333
0 0.5 0.666667
0.333333 0.166667 1
0.666667 0.333333 1
0.333333 0.5 1
0.666667 0.5 1
0.333333 0.5 0.666667
0.666667 0.5 0.833333
0.333333 0.333333 1
0.333333 0.5 0.833333
0.333333 0.333333 0.833333
0 0.333333 0.833333
1 0 0.666667
1 0 0.833333
0.666667 0 1
0.333333 0 1
1 0.166667 0.666667
1 0.333333 0.833333
1 0.166667 1
1 0.333333 1
1 0.166667 0.833333
0.666667 0.166667 1
0.666667 0.166667 0.833333
0.666667 0 0.833333
1 0.5 0.833333
1 0.5 0.666667
1 0.333333 0.666667
0.666667 0.333333 0.666667
0.666667 0.5 0.666667
1.33333 0 0.666667
1.66667 0 0.833333
1.33333 0 1
1.66667 0 1
1.33333 0.333333 1
1.66667 0.166667 1
1.33333 0 0.833333
1.33333 0.166667 1
1.33333 0.166667 0.833333
1.33333 0.5 0.833333
1.66667 0.5 0.666667
1.33333 0.5 0.666667
1.33333 0.333333 0.666667
2 0 0.666667
2 0 0.833333
2 0.166667 0.833333
2 0.333333 0.666667
2 0.166667 0.666667
1.66667 0.166667 0.666667
1.66667 0 0.666667
2 0.166667 1
2 0.333333 1
1.66667 0.5 1
1.33333 0.5 1
2 0.5 0.833333
2 0.5 0.666667
2 0.333333 0.833333
1.66667 0.5 0.833333
1.66667 0.333333 0.833333
1.66667 0.333333 1
2.33333 0 0.833333
2.66667 0 0.666667
2.33333 0 0.666667
2.33333 0.166667 0.666667
2.33333 0.166667 1
2.66667 0.333333 1
2.33333 0.5 1
2.66667 0.5 1
2.33333 0.5 0.666667
2.66667 0.5 0.833333
2.33333 0.333333 1
2.33333 0.5 0.833333
2.33333 0.333333 0.833333
3 0 0.666667
3 0 0.833333
2.66667 0 1
2.33333 0 1
3 0.166667 0.666667
3 0.333333 0.833333
3 0.166667 1
3 0.333333 1
3 0.166667 0.833333
2.66667 0.166667 1
2.66667 0.166667 0.833333
2.66667 0 0.833333
3 0.5 0.833333
3 0.5 0.666667
3 0.333333 0.666667
2.66667 0.333333 0.666667
2.66667 0.5 0.666667
3.33333 0 0.666667
3.66667 0 0.833333
3.33333 0 1
3.66667 0 1
3.33333 0.333333 1
3.66667 0.166667 1
3.33333 0 0.833333
3.33333 0.166667 1
3.33333 0.166667 0.833333
3.33333 0.5 0.833333
3.66667 0.5 0.666667
3.33333 0.5 0.666667
3.33333 0.333333 0.666667
4 0 0.666667
4 0 0.833333
4 0.166667 0.833333
4 0.333333 0.666667
4 0.166667 0.666667
3.66667 0.166667 0.666667
3.66667 0 0.666667
4 0.166667 1
4 0.333333 1
3.66667 0.5 1
3.33333 0.5 1
4 0.5 0.833333
4 0.5 0.666667
4 0.333333 0.833333
3.66667 0.5 0.833333
3.66667 0.333333 0.833333
3.66667 0.333333 1
0 0.666667 1
0 0.833333 1
0 0.833333 0.833333
0 0.666667 0.666667
0.333333 0.833333 1
0.666667 0.666667 1
0.333333 0.666667 1
0.333333 0.666667 0.833333
0 0.666667 0.833333
0 1 0.833333
0 1 0.666667
0.333333 1 0.833333
0.666667 1 0.666667
0.333333 1 0.666667
0.333333 0.833333 0.666667
0 0.833333 0.666667
1 0.666667 0.833333
1 0.833333 0.666667
1 0.666667 0.666667
0.666667 0.666667 0.666667
1 0.666667 1
1 0.833333 1
0.666667 1 1
0.333333 1 1
1 1 0.833333
1 1 0.666667
1 0.833333 0.833333
0.666667 1 0.833333
0.666667 0.833333 0.833333
0.666667 0.833333 1
1.33333 0.666667 0.666667
1.33333 0.666667 1
1.66667 0.833333 1
1.33333 1 1
1.66667 1 1
1.33333 1 0.666667
1.66667 1 0.833333
1.33333 0.833333 1
1.33333 1 0.833333
1.33333 0.833333 0.833333
2 0.666667 0.666667
2 0.833333 0.833333
2 0.666667 1
2 0.833333 1
2 0.666667 0.833333
1.66667 0.666667 1
1.66667 0.666667 0.833333
2 1 0.833333
2 1 0.666667
2 0.833333 0.666667
1.66667 0.833333 0.666667
1.66667 1 0.666667
2.33333 0.833333 1
2.66667 0.666667 1
2.33333 0.666667 1
2.33333 0.666667 0.833333
2.33333 1 0.833333
2.66667 1 0.666667
2.33333 1 0.666667
2.33333 0.833333 0.666667
3 0.666667 0.833333
3 0.833333 0.666667
3 0.666667 0.666667
2.66667 0.666667 0.666667
3 0.666667 1
3 0.833333 1
2.66667 1 1
2.33333 1 1
3 1 0.833333
3 1 0.666667
3 0.833333 0.833333
2.66667 1 0.833333
2.66667 0.833333 0.833333
2.66667 0.833333 1
3.33333 0.666667 0.666667
3.33333 0.666667 1
3.66667 0.833333 1
3.33333 1 1
3.66667 1 1
3.33333 1 0.666667
3.66667 1 0.833333
3.33333 0.833333 1
3.33333 1 0.833333
3.33333 0.833333 0.833333
4 0.666667 0.666667
4 0.833333 0.833333
4 0.666667 1
4 0.833333 1
4 0.666667 0.833333
3.66667 0.666667 1
3.66667 0.666667 0.833333
4 1 0.833333
4 1 0.666667
4 0.833333 0.666667
3.66667 0.833333 0.666667
3.66667 1 0.666667

CELLS 81 1600
OFFSETS vtktypeint64
0 20 40 60 80 100 120 140 160 180 200 220 240 260 280 300 320 340 360 380 400 420 440 460 480 500 520 540 560 580 600 620 640 660 680 700 720 740 760 780 800 820 840 860 880 900 920 940 960 980 1000 1020 1040 1060 1080 1100 1120 1140 1160 1180 1200 1220 1240 1260 1280 1300 1320 1340 1360 1380 1400 1420 1440 1460 1480 1500 1520 1540 1560 1580 1600 
CONNECTIVITY vtktypeint64
5 31 40 34 45 46 47 48 49 50 51 52 53 54 55 56 57 58 59 60 
40 21 5 25 61 62 63 64 50 49 65 66 67 68 69 70 71 72 73 74 
5 10 34 25 75 76 77 78 52 51 69 70 79 80 81 82 83 84 85 86 
34 42 40 25 87 88 89 90 55 56 81 82 91 92 65 66 93 94 95 96 
10 34 25 13 77 78 81 82 80 79 97 98 99 100 101 102 103 104 105 84 
34 42 25 43 87 88 91 92 82 81 106 107 108 109 110 111 112 113 114 93 
13 36 34 43 115 116 117 118 99 100 119 120 121 122 106 107 123 124 125 126 
43 27 25 13 127 128 129 130 110 111 120 119 131 132 101 102 133 134 135 136 
13 36 43 38 115 116 121 122 120 119 137 138 139 140 141 142 143 144 145 123 
43 27 13 29 127 128 131 132 119 120 146 147 148 149 150 151 152 153 154 133 
13 17 38 29 155 156 157 158 138 137 150 151 159 160 161 162 163 164 165 166 
38 44 43 29 167 168 169 170 141 142 161 162 171 172 146 147 173 174 175 176 
17 38 29 14 157 158 161 162 160 159 177 178 179 180 181 182 183 184 185 164 
38 44 29 9 167 168 171 172 162 161 186 187 188 189 190 191 192 193 194 173 
14 1 38 9 195 196 197 198 179 180 199 200 201 202 186 187 203 204 205 206 
9 0 29 14 207 208 209 210 190 191 200 199 211 212 181 182 213 214 215 216 
21 40 20 25 62 61 217 218 219 220 67 68 65 66 221 222 71 223 224 225 
40 39 20 41 226 227 228 229 218 217 230 231 232 233 234 235 236 237 238 239 
25 42 40 41 92 91 89 90 65 66 240 241 242 243 230 231 244 245 246 94 
41 24 20 25 247 248 249 250 234 235 241 240 251 252 221 222 253 254 255 256 
25 42 41 43 92 91 242 243 241 240 110 111 108 109 257 258 113 259 260 244 
41 24 25 26 247 248 251 252 240 241 261 262 263 264 265 266 267 268 269 253 
25 27 43 26 130 129 128 127 111 110 265 266 270 271 272 273 274 275 276 136 
43 8 41 26 277 278 279 280 257 258 272 273 281 282 261 262 283 284 285 286 
27 43 26 29 128 127 272 273 271 270 148 149 146 147 287 288 152 289 290 275 
43 8 26 30 277 278 281 282 273 272 291 292 293 294 295 296 297 298 299 283 
29 44 43 30 172 171 169 170 146 147 300 301 302 303 291 292 304 305 306 174 
30 28 26 29 307 308 309 310 295 296 301 300 311 312 287 288 313 314 315 316 
29 44 30 9 172 171 302 303 301 300 190 191 188 189 317 318 193 319 320 304 
30 28 29 22 307 308 311 312 300 301 321 322 323 324 325 326 327 328 329 313 
29 0 9 22 210 209 208 207 191 190 325 326 330 331 332 333 334 335 336 216 
9 33 30 22 337 338 339 340 317 318 332 333 341 342 321 322 343 344 345 346 
31 18 40 34 347 348 349 350 48 47 53 54 351 352 55 56 353 354 58 355 
18 12 40 4 356 357 358 359 350 349 360 361 362 363 364 365 366 367 368 369 
34 2 18 4 370 371 372 373 351 352 374 375 376 377 360 361 378 379 380 381 
4 42 40 34 382 383 89 90 364 365 375 374 88 87 55 56 384 96 385 386 
34 2 4 11 370 371 376 377 375 374 387 388 389 390 391 392 393 394 395 378 
4 42 34 43 382 383 88 87 374 375 396 397 108 109 106 107 398 112 399 384 
34 36 11 43 118 117 400 401 388 387 106 107 121 122 402 403 124 404 405 406 
11 35 4 43 407 408 409 410 391 392 402 403 411 412 396 397 413 414 415 416 
36 11 43 38 400 401 402 403 122 121 139 140 417 418 141 142 419 420 144 404 
11 35 43 37 407 408 411 412 403 402 421 422 423 424 425 426 427 428 429 413 
38 32 11 37 430 431 432 433 417 418 434 435 436 437 421 422 438 439 440 441 
37 44 43 38 442 443 169 170 425 426 435 434 168 167 141 142 444 176 445 446 
38 32 37 7 430 431 436 437 435 434 447 448 449 450 451 452 453 454 455 438 
37 44 38 9 442 443 168 167 434 435 456 457 188 189 186 187 458 192 459 444 
38 1 7 9 198 197 460 461 448 447 186 187 201 202 462 463 204 464 465 466 
7 15 37 9 467 468 469 470 451 452 462 463 471 472 456 457 473 474 475 476 
40 12 6 4 359 358 477 478 479 480 364 365 362 363 481 482 367 483 484 485 
6 39 40 41 486 487 227 226 480 479 488 489 232 233 230 231 490 236 491 492 
40 42 4 41 90 89 383 382 365 364 230 231 242 243 493 494 245 495 496 386 
4 3 6 41 497 498 499 500 481 482 493 494 501 502 488 489 503 504 505 506 
42 4 41 43 383 382 493 494 243 242 108 109 396 397 257 258 398 507 259 495 
4 3 41 19 497 498 501 502 494 493 508 509 510 511 512 513 514 515 516 503 
43 35 4 19 412 411 409 410 396 397 517 518 519 520 508 509 521 522 523 414 
19 8 41 43 524 525 279 280 512 513 518 517 278 277 257 258 526 286 527 528 
43 35 19 37 412 411 519 520 518 517 425 426 423 424 529 530 428 531 532 521 
19 8 43 30 524 525 278 277 517 518 533 534 293 294 291 292 535 297 536 526 
43 44 37 30 170 169 443 442 426 425 291 292 302 303 537 538 305 539 540 446 
37 23 19 30 541 542 543 544 529 530 537 538 545 546 533 534 547 548 549 550 
44 37 30 9 443 442 537 538 303 302 188 189 456 457 317 318 458 551 319 539 
37 23 30 16 541 542 545 546 538 537 552 553 554 555 556 557 558 559 560 547 
9 15 37 16 472 471 469 470 456 457 561 562 563 564 552 553 565 566 567 474 
16 33 30 9 568 569 339 340 556 557 562 561 338 337 317 318 570 346 571 572 
40 5 34 25 49 50 51 52 56 55 65 66 69 70 81 82 73 85 95 59 
40 34 18 4 55 56 352 351 349 350 364 365 374 375 360 361 385 380 368 354 
25 40 20 41 66 65 217 218 221 222 240 241 230 231 234 235 246 238 255 223 
34 25 13 43 81 82 101 102 100 99 106 107 110 111 119 120 114 135 125 104 
40 4 6 41 364 365 482 481 479 480 230 231 493 494 488 489 496 505 491 484 
4 34 11 43 375 374 387 388 392 391 396 397 106 107 402 403 399 405 415 395 
41 25 43 26 241 240 110 111 258 257 261 262 265 266 272 273 269 276 285 260 
43 13 38 29 120 119 137 138 142 141 146 147 150 151 161 162 154 165 175 145 
4 41 43 19 493 494 257 258 397 396 508 509 512 513 517 518 516 527 523 507 
11 43 38 37 402 403 141 142 418 417 421 422 425 426 434 435 429 445 440 420 
43 26 29 30 272 273 287 288 147 146 291 292 295 296 300 301 299 315 306 289 
38 29 14 9 161 162 181 182 180 179 186 187 190 191 199 200 194 215 205 184 
19 43 37 30 518 517 425 426 530 529 533 534 291 292 537 538 536 540 549 532 
37 38 7 9 435 434 447 448 452 451 456 457 186 187 462 463 459 465 475 455 
30 29 9 22 301 300 190 191 318 317 321 322 325 326 332 333 329 336 345 320 
37 30 9 16 537 538 317 318 457 456 552 553 556 557 561 562 560 571 567 551 
CELL_TYPES 80
71 71 71 71 71 71 71 71 71 71 71 71 71 71 71 71 71 71 71 71 71 71 71 71 71 71 71 71 71 71 71 71 71 71 71 71 71 71 71 71 71 71 71 71 71 71 71 71 71 71 71 71 71 71 71 71 71 71 71 71 71 71 71 71 71 71 71 71 71 71 71 71 71 71 71 71 71 71 71 71 

POINT_DATA 573
SCALARS weights float 1
LOOKUP_TABLE default
4.16666 4.16666 4.16667 4.16667 41.6667 10.4167 10.4167 10.4167 8.33333 41.6667 4.16667 20.8333 4.16667 20.8333 10.4167 4.16666 10.4167 4.16667 10.4167 20.8333 10.4167 4.16667 10.4167 4.16667 4.16667 41.6667 20.8333 8.33333 4.16667 41.6667 41.6667 4.16667 4.16667 4.16666 41.6667 8.33333 8.33333 41.6667 41.6667 4.16667 41.6667 41.6667 16.6667 83.3333 16.6667 2.08333 2.08333 4.16667 4.16667 8.33333 8.33333 8.33333 8.33333 4.16667 4.16667 16.6667 16.6667 2.08333 4.16667 6.25 2.08333 4.16667 4.16667 2.08333 2.08333 16.6667 16.6667 4.16667 4.16667 8.33333 8.33333 4.16667 2.08333 6.25 2.08333 2.08333 2.08333 4.16667 4.16667 4.16667 4.16667 16.6667 16.6667 2.08333 4.16667 6.25 2.08333 8.33333 8.33333 8.33333 8.33333 8.33333 8.33333 4.16667 4.16667 6.25 4.16667 2.08333 2.08333 8.33333 8.33333 8.33333 8.33333 2.08333 6.25 2.08333 16.6667 16.6667 8.33333 8.33333 16.6667 16.6667 4.16667 4.16667 6.25 4.16667 4.16667 4.16667 4.16667 16.6667 16.6667 8.33333 8.33333 4.16667 4.16667 6.25 2.08333 8.33333 8.33333 4.16667 4.16667 4.16667 4.16667 4.16667 2.08333 6.25 4.16667 8.33333 8.33333 4.16667 4.16667 16.6667 16.6667 2.08333 4.16667 6.25 16.6667 16.6667 4.16667 4.16667 8.33333 8.33333 4.16667 2.08333 6.25 2.08333 2.08333 4.16667 4.16667 4.16667 4.16667 16.6667 16.6667 2.08333 4.16667 6.25 2.08333 8.33333 8.33333 8.33333 8.33333 8.33333 8.33333 4.16667 4.16667 6.25 4.16667 2.08333 2.08333 8.33333 8.33333 8.33333 8.33333 2.08333 6.25 2.08333 16.6667 16.6667 8.33333 8.33333 16.6667 16.6667 4.16667 4.16667 6.25 2.08333 2.08333 4.16666 4.16666 8.33333 8.33333 4.16666 4.16666 2.08333 4.16666 6.25 2.08333 4.16666 4.16666 4.16666 4.16666 2.08333 2.08333 2.08333 2.08333 6.25 4.16666 8.33333 8.33333 2.08333 2.08333 8.33333 8.33333 6.25 2.08333 2.08333 4.16667 4.16667 2.08333 2.08333 16.6667 16.6667 4.16667 4.16667 8.33333 8.33333 4.16667 2.08333 6.25 2.08333 16.6667 16.6667 8.33333 8.33333 4.16667 4.16667 6.25 4.16667 4.16667 2.08333 2.08333 4.16667 4.16667 4.16667 2.08333 6.25 2.08333 16.6667 16.6667 4.16667 6.25 8.33333 8.33333 2.08333 2.08333 8.33333 8.33333 2.08333 2.08333 6.25 4.16667 4.16667 16.6667 16.6667 2.08333 4.16667 6.25 8.33333 8.33333 4.16667 4.16667 4.16667 4.16667 4.16667 2.08333 6.25 4.16667 8.33333 8.33333 6.25 2.08333 16.6667 16.6667 4.16667 4.16667 8.33333 8.33333 4.16667 2.08333 6.25 16.6667 16.6667 8.33333 8.33333 4.16667 4.16667 6.25 4.16667 4.16667 2.08333 2.08333 4.16667 4.16667 4.16667 2.08333 6.25 2.08333 16.6667 16.6667 4.16667 6.25 8.33333 8.33333 2.08333 2.08333 8.33333 8.33333 2.08333 2.08333 6.25 2.08333 2.08333 8.33333 8.33333 2.08333 2.08333 6.25 4.16666 4.16666 4.16666 4.16666 2.08333 2.08333 2.08333 2.08333 6.25 4.16666 2.08333 2.08333 8.33333 8.33333 8.33333 8.33333 2.08333 6.25 2.08333 2.08333 2.08333 4.16667 4.16667 8.33333 8.33333 4.16667 4.16667 16.6667 16.6667 2.08333 4.16667 6.25 2.08333 4.16667 4.16667 2.08333 2.08333 16.6667 16.6667 4.16667 4.16667 4.16667 2.08333 6.25 2.08333 8.33333 8.33333 4.16667 6.25 4.16667 8.33333 8.33333 2.08333 2.08333 8.33333 8.33333 2.08333 2.08333 6.25 16.6667 16.6667 4.16667 6.25 4.16667 4.16667 16.6667 16.6667 4.16667 6.25 2.08333 4.16667 4.16667 4.16667 4.16667 8.33333 8.33333 4.16667 4.16667 6.25 2.08333 8.33333 8.33333 2.08333 6.25 8.33333 8.33333 4.16667 4.16667 16.6667 16.6667 2.08333 4.16667 6.25 4.16667 4.16667 2.08333 2.08333 16.6667 16.6667 4.16667 4.16667 4.16667 2.08333 6.25 2.08333 8.33333 8.33333 4.16667 6.25 4.16667 8.33333 8.33333 2.08333 2.08333 8.33333 8.33333 2.08333 2.08333 6.25 16.6667 16.6667 4.16667 6.25 2.08333 2.08333 8.33333 8.33333 2.08333 6.25 2.08333 2.08333 2.08333 4.16666 4.16666 4.16666 4.16666 2.08333 4.16666 6.25 2.08333 2.08333 2.08333 8.33333 8.33333 8.33334 8.33334 2.08333 6.25 2.08333 2.08333 2.08333 8.33333 8.33333 2.08333 6.25 2.08333 16.6667 16.6667 4.16667 6.25 4.16667 4.16667 2.08333 2.08333 4.16667 4.16667 4.16667 2.08333 6.25 2.08333 6.25 8.33333 8.33333 2.08333 2.08333 8.33333 8.33333 2.08333 2.08333 6.25 16.6667 16.6667 4.16667 4.16667 4.16667 2.08333 6.25 4.16667 4.16667 4.16667 6.25 2.08333 8.33334 8.33334 2.08333 6.25 8.33333 8.33333 2.08333 6.25 16.6667 16.6667 4.16667 6.25 4.16667 4.16667 2.08333 2.08333 4.16667 4.16667 4.16667 2.08333 6.25 2.08333 6.25 8.33333 8.33333 2.08333 2.08333 8.33333 8.33333 2.08333 2.08333 6.25 8.33333 8.33333 2.08333 2.08333 2.08333 2.08333 6.25 2.08333 2.08333 2.08333 6.25 2.08333 
VECTORS u float