# vtk DataFile Version 5.1
vtk output
ASCII

DATASET UNSTRUCTURED_GRID
POINTS 16225 float
3.5 1 0.5
2.75 1 0.5
4 0.75 1
0.5 0 1
1.5 0.5 1
0.75 0.5 1
0.25 0.25 1
0 0 0
3.75 1 0.5
3.25 1 0.5
0.25 0.5 1
4 0 0.5
1 0.5 1
4 0.75 0.5
4 0.25 0.5
0.25 0 0
1.5 0 1
1 0 1
1.5 0.75 1
0.5 0 0
1 1 0.75
0.25 1 1
0.75 0 0
2.25 0 1
2.25 0.5 1
0.75 1 0.25
1 0 0
1.25 0.5 1
1.25 1 0.5
4 0.25 0.25
1.25 0 0
2.5 0 1
3.5 0.5 1
2.5 0.75 1
1.5 0 0
4 0 0.25
4 0.25 0
1.25 1 0.75
1.75 0 0
2.5 0.5 1
0.75 1 0.75
2.25 0.75 1
2 0 0
2 0.5 1
2 0.75 1
1 0.75 1
2.25 0 0
3.5 0 1
0.5 0.75 1
3.5 0.75 1
2.5 0 0
1 1 0.5
0 1 0.5
4 0.5 0
2.75 0 0
0 0.5 1
0 1 1
0 1 0.75
3 0 0
3 0.5 1
0.75 1 0.5
3 0.75 1
3.25 0 0
2.5 1 0.5
3 1 0.5
0.5 1 0.75
3.5 0 0
4 0 0
0.25 0 1
3.75 0 0
2 1 0.5
1.5 1 0.5
3.25 0.5 1
0 0.25 0
2.25 1 0.5
1.75 1 0.5
4 0.5 0.5
0.25 0.25 0
0.5 1 0.5
0.5 0.25 0
4 0.25 1
0.75 0.25 0
0 1 0.25
1 0.25 0
4 0.5 0.25
1.25 0.25 0
0.5 1 0.25
1.5 0.25 0
4 0.5 1
1.75 0.25 0
3.75 0 1
2 0.25 0
4 1 0
2.25 0.25 0
2.5 0.25 0
4 0.75 0
2.75 0.25 0
0.5 0.5 1
3 0.25 0
1 1 0.25
3.25 0.25 0
3.5 0.25 0
0 0.25 1
3.75 0.25 0
3.25 0.75 1
0 0.5 0
4 0.25 0.75
3.75 0.5 1
1.25 1 0.25
0.25 0.5 0
1.5 1 0.25
0.5 0.5 0
1.75 1 0.25
0.75 0.5 0
2 1 0.25
1 0.5 0
2.25 1 0.25
1.25 0.5 0
2.5 1 0.25
1.5 0.5 0
2.75 1 0.25
1.75 0.5 0
3 1 0.25
2 0.5 0
3.25 1 0.25
2.25 0.5 0
3.5 1 0.25
2.5 0.5 0
3.75 1 0.25
2.75 0.5 0
1.75 0.5 1
3 0.5 0
4 0.75 0.25
3.25 0.5 0
3 0 1
3.5 0.5 0
2 0 1
3.75 0.5 0
0 1 0
0 0.75 0
4 0.5 0.75
3.75 0.75 1
0.25 1 0
0.25 0.75 0
0.5 1 0
0.5 0.75 0
0.75 1 0
0.75 0.75 0
1 1 0
1 0.75 0
1.25 1 0
1.25 0.75 0
1.5 1 0
1.5 0.75 0
1.75 1 0
1.75 0.75 0
2 1 0
2 0.75 0
2.25 1 0
2.25 0.75 0
2.5 1 0
2.5 0.75 0
2.75 1 0
2.75 0.75 0
3 1 0
3 0.75 0
3.25 1 0
3.25 0.75 0
3.5 1 0
3.5 0.75 0
3.75 1 0
3.75 0.75 0
2.75 0.5 1
0 0 0.25
4 0 1
4 0 0.75
1.25 0.75 1
0.25 0 0.25
1.5 1 0.75
0.5 0 0.25
1.75 1 0.75
0.75 0 0.25
2 1 0.75
1 0 0.25
2.25 1 0.75
1.25 0 0.25
2.5 1 0.75
1.5 0 0.25
2.75 1 0.75
1.75 0 0.25
3 1 0.75
2 0 0.25
3.25 1 0.75
2.25 0 0.25
3.5 1 0.75
2.5 0 0.25
3.75 1 0.75
2.75 0 0.25
3 0 0.25
4 0.75 0.75
3.25 0 0.25
3.5 0 0.25
4 1 1
3.75 0 0.25
2.75 0.75 1
0 0.25 0.25
1.75 0 1
0.25 0.25 0.25
0.5 0.25 0.25
0.75 0.25 0.25
1 0.25 0.25
1.25 0.25 0.25
1.5 0.25 0.25
1.75 0.25 0.25
2 0.25 0.25
2.25 0.25 0.25
2.5 0.25 0.25
2.75 0.25 0.25
3 0.25 0.25
3.25 0.25 0.25
3.5 0.25 0.25
3.75 0.25 0.25
0 0.5 0.25
4 1 0.25
0.25 0.5 0.25
0.5 0.5 0.25
0.75 0.5 0.25
1 0.5 0.25
1.25 0.5 0.25
1.5 0.5 0.25
1.75 0.5 0.25
2 0.5 0.25
2.25 0.5 0.25
2.5 0.5 0.25
2.75 0.5 0.25
3 0.5 0.25
3.25 0.5 0.25
3.5 0.5 0.25
3.75 0.5 0.25
0 0.75 0.25
0.25 1 0.25
0.25 0.75 0.25
0.5 0.75 0.25
0.75 0.75 0.25
1 0.75 0.25
1.25 0.75 0.25
1.5 0.75 0.25
1.75 0.75 0.25
2 0.75 0.25
2.25 0.75 0.25
2.5 0.75 0.25
2.75 0.75 0.25
3 0.75 0.25
3.25 0.75 0.25
3.5 0.75 0.25
3.75 0.75 0.25
0 0 0.5
3.25 0 1
2.75 0 1
0.25 0.75 1
0.25 0 0.5
0.5 1 1
0.5 0 0.5
0.75 1 1
0.75 0 0.5
1 1 1
1 0 0.5
1.25 1 1
1.25 0 0.5
1.5 1 1
1.5 0 0.5
1.75 1 1
1.75 0 0.5
2 1 1
2 0 0.5
2.25 1 1
2.25 0 0.5
2.5 1 1
2.5 0 0.5
2.75 1 1
2.75 0 0.5
3 1 1
3 0 0.5
3.25 1 1
3.25 0 0.5
3.5 1 1
3.5 0 0.5
3.75 1 1
3.75 0 0.5
1.75 0.75 1
0 0.25 0.5
0 0 1
0.25 0.25 0.5
0.5 0.25 0.5
0.75 0.25 0.5
1 0.25 0.5
1.25 0.25 0.5
1.5 0.25 0.5
1.75 0.25 0.5
2 0.25 0.5
2.25 0.25 0.5
2.5 0.25 0.5
2.75 0.25 0.5
3 0.25 0.5
3.25 0.25 0.5
3.5 0.25 0.5
3.75 0.25 0.5
0 0.5 0.5
4 1 0.5
0.25 0.5 0.5
0.5 0.5 0.5
0.75 0.5 0.5
1 0.5 0.5
1.25 0.5 0.5
1.5 0.5 0.5
1.75 0.5 0.5
2 0.5 0.5
2.25 0.5 0.5
2.5 0.5 0.5
2.75 0.5 0.5
3 0.5 0.5
3.25 0.5 0.5
3.5 0.5 0.5
3.75 0.5 0.5
0 0.75 0.5
0.25 1 0.5
0.25 0.75 0.5
0.5 0.75 0.5
0.75 0.75 0.5
1 0.75 0.5
1.25 0.75 0.5
1.5 0.75 0.5
1.75 0.75 0.5
2 0.75 0.5
2.25 0.75 0.5
2.5 0.75 0.5
2.75 0.75 0.5
3 0.75 0.5
3.25 0.75 0.5
3.5 0.75 0.5
3.75 0.75 0.5
0 0 0.75
1.25 0 1
0.75 0 1
0 0.75 1
0.25 0 0.75
0.5 0.25 1
0.5 0 0.75
0.75 0.25 1
0.75 0 0.75
1 0.25 1
1 0 0.75
1.25 0.25 1
1.25 0 0.75
1.5 0.25 1
1.5 0 0.75
1.75 0.25 1
1.75 0 0.75
2 0.25 1
2 0 0.75
2.25 0.25 1
2.25 0 0.75
2.5 0.25 1
2.5 0 0.75
2.75 0.25 1
2.75 0 0.75
3 0.25 1
3 0 0.75
3.25 0.25 1
3.25 0 0.75
3.5 0.25 1
3.5 0 0.75
3.75 0.25 1
3.75 0 0.75
0.75 0.75 1
0 0.25 0.75
0.25 0.25 0.75
0.5 0.25 0.75
0.75 0.25 0.75
1 0.25 0.75
1.25 0.25 0.75
1.5 0.25 0.75
1.75 0.25 0.75
2 0.25 0.75
2.25 0.25 0.75
2.5 0.25 0.75
2.75 0.25 0.75
3 0.25 0.75
3.25 0.25 0.75
3.5 0.25 0.75
3.75 0.25 0.75
0 0.5 0.75
4 1 0.75
0.25 0.5 0.75
0.5 0.5 0.75
0.75 0.5 0.75
1 0.5 0.75
1.25 0.5 0.75
1.5 0.5 0.75
1.75 0.5 0.75
2 0.5 0.75
2.25 0.5 0.75
2.5 0.5 0.75
2.75 0.5 0.75
3 0.5 0.75
3.25 0.5 0.75
3.5 0.5 0.75
3.75 0.5 0.75
0 0.75 0.75
0.25 1 0.75
0.25 0.75 0.75
0.5 0.75 0.75
0.75 0.75 0.75
1 0.75 0.75
1.25 0.75 0.75
1.5 0.75 0.75
1.75 0.75 0.75
2 0.75 0.75
2.25 0.75 0.75
2.5 0.75 0.75
2.75 0.75 0.75
3 0.75 0.75
3.25 0.75 0.75
3.5 0.75 0.75
3.75 0.75 0.75
0 0 0.125
0 0.125 0.25
0 0.125 0.125
0.125 0 0.125
0.125 0 0.25
0.125 0.125 0.25
0 0.25 0.125
0 0.125 0
0.125 0.25 0.125
0.125 0.25 0
0.125 0.125 0
0.125 0 0
0.25 0 0.125
0.25 0.125 0
0.25 0.125 0.125
0.25 0.125 0.25
0.125 0.25 0.25
0.25 0.25 0.125
0.375 0 0
0.375 0 0.125
0.375 0.125 0
0.375 0.125 0.25
0.375 0.25 0.25
0.375 0.25 0.125
0.5 0 0.125
0.375 0 0.25
0.5 0.125 0.125
0.5 0.125 0.25
0.5 0.25 0.125
0.375 0.25 0
0.5 0.125 0
0.625 0 0.125
0.625 0 0.25
0.625 0.125 0.25
0.625 0.25 0.125
0.625 0.25 0
0.625 0.125 0
0.625 0 0
0.75 0 0.125
0.75 0.125 0
0.75 0.125 0.125
0.75 0.125 0.25
0.625 0.25 0.25
0.75 0.25 0.125
0.875 0 0
0.875 0 0.125
0.875 0.125 0
0.875 0.125 0.25
0.875 0.25 0.25
0.875 0.25 0.125
1 0 0.125
0.875 0 0.25
1 0.125 0.125
1 0.125 0.25
1 0.25 0.125
0.875 0.25 0
1 0.125 0
1.125 0 0.125
1.125 0 0.25
1.125 0.125 0.25
1.125 0.25 0.125
1.125 0.25 0
1.125 0.125 0
1.125 0 0
1.25 0 0.125
1.25 0.125 0
1.25 0.125 0.125
1.25 0.125 0.25
1.125 0.25 0.25
1.25 0.25 0.125
1.375 0 0
1.375 0 0.125
1.375 0.125 0
1.375 0.125 0.25
1.375 0.25 0.25
1.375 0.25 0.125
1.5 0 0.125
1.375 0 0.25
1.5 0.125 0.125
1.5 0.125 0.25
1.5 0.25 0.125
1.375 0.25 0
1.5 0.125 0
1.625 0 0.125
1.625 0 0.25
1.625 0.125 0.25
1.625 0.25 0.125
1.625 0.25 0
1.625 0.125 0
1.625 0 0
1.75 0 0.125
1.75 0.125 0
1.75 0.125 0.125
1.75 0.125 0.25
1.625 0.25 0.25
1.75 0.25 0.125
1.875 0 0
1.875 0 0.125
1.875 0.125 0
1.875 0.125 0.25
1.875 0.25 0.25
1.875 0.25 0.125
2 0 0.125
1.875 0 0.25
2 0.125 0.125
2 0.125 0.25
2 0.25 0.125
1.875 0.25 0
2 0.125 0
2.125 0 0.125
2.125 0 0.25
2.125 0.125 0.25
2.125 0.25 0.125
2.125 0.25 0
2.125 0.125 0
2.125 0 0
2.25 0 0.125
2.25 0.125 0
2.25 0.125 0.125
2.25 0.125 0.25
2.125 0.25 0.25
2.25 0.25 0.125
2.375 0 0
2.375 0 0.125
2.375 0.125 0
2.375 0.125 0.25
2.375 0.25 0.25
2.375 0.25 0.125
2.5 0 0.125
2.375 0 0.25
2.5 0.125 0.125
2.5 0.125 0.25
2.5 0.25 0.125
2.375 0.25 0
2.5 0.125 0
2.625 0 0.125
2.625 0 0.25
2.625 0.125 0.25
2.625 0.25 0.125
2.625 0.25 0
2.625 0.125 0
2.625 0 0
2.75 0 0.125
2.75 0.125 0
2.75 0.125 0.125
2.75 0.125 0.25
2.625 0.25 0.25
2.75 0.25 0.125
2.875 0 0
2.875 0 0.125
2.875 0.125 0
2.875 0.125 0.25
2.875 0.25 0.25
2.875 0.25 0.125
3 0 0.125
2.875 0 0.25
3 0.125 0.125
3 0.125 0.25
3 0.25 0.125
2.875 0.25 0
3 0.125 0
3.125 0 0.125
3.125 0 0.25
3.125 0.125 0.25
3.125 0.25 0.125
3.125 0.25 0
3.125 0.125 0
3.125 0 0
3.25 0 0.125
3.25 0.125 0
3.25 0.125 0.125
3.25 0.125 0.25
3.125 0.25 0.25
3.25 0.25 0.125
3.375 0 0
3.375 0 0.125
3.375 0.125 0
3.375 0.125 0.25
3.375 0.25 0.25
3.375 0.25 0.125
3.5 0 0.125
3.375 0 0.25
3.5 0.125 0.125
3.5 0.125 0.25
3.5 0.25 0.125
3.375 0.25 0
3.5 0.125 0
3.625 0 0.125
3.625 0 0.25
3.625 0.125 0.25
3.625 0.25 0.125
3.625 0.25 0
3.625 0.125 0
3.625 0 0
3.75 0 0.125
3.75 0.125 0
3.75 0.125 0.125
3.75 0.125 0.25
3.625 0.25 0.25
3.75 0.25 0.125
3.875 0 0
3.875 0 0.125
3.875 0.125 0
3.875 0.125 0.25
3.875 0.25 0.25
3.875 0.25 0.125
4 0 0.125
3.875 0 0.25
4 0.125 0.125
4 0.125 0.25
4 0.25 0.125
3.875 0.25 0
4 0.125 0
0 0.375 0.125
0 0.375 0
0.125 0.375 0
0 0.375 0.25
0 0.5 0.125
0.125 0.375 0.25
0.125 0.5 0.25
0.125 0.5 0.125
0.25 0.375 0.125
0.25 0.375 0.25
0.25 0.5 0.125
0.125 0.5 0
0.25 0.375 0
0.375 0.375 0.25
0.375 0.5 0.125
0.375 0.5 0
0.375 0.375 0
0.5 0.375 0
0.5 0.375 0.125
0.5 0.375 0.25
0.375 0.5 0.25
0.5 0.5 0.125
0.625 0.375 0
0.625 0.375 0.25
0.625 0.5 0.25
0.625 0.5 0.125
0.75 0.375 0.125
0.75 0.375 0.25
0.75 0.5 0.125
0.625 0.5 0
0.75 0.375 0
0.875 0.375 0.25
0.875 0.5 0.125
0.875 0.5 0
0.875 0.375 0
1 0.375 0
1 0.375 0.125
1 0.375 0.25
0.875 0.5 0.25
1 0.5 0.125
1.125 0.375 0
1.125 0.375 0.25
1.125 0.5 0.25
1.125 0.5 0.125
1.25 0.375 0.125
1.25 0.375 0.25
1.25 0.5 0.125
1.125 0.5 0
1.25 0.375 0
1.375 0.375 0.25
1.375 0.5 0.125
1.375 0.5 0
1.375 0.375 0
1.5 0.375 0
1.5 0.375 0.125
1.5 0.375 0.25
1.375 0.5 0.25
1.5 0.5 0.125
1.625 0.375 0
1.625 0.375 0.25
1.625 0.5 0.25
1.625 0.5 0.125
1.75 0.375 0.125
1.75 0.375 0.25
1.75 0.5 0.125
1.625 0.5 0
1.75 0.375 0
1.875 0.375 0.25
1.875 0.5 0.125
1.875 0.5 0
1.875 0.375 0
2 0.375 0
2 0.375 0.125
2 0.375 0.25
1.875 0.5 0.25
2 0.5 0.125
2.125 0.375 0
2.125 0.375 0.25
2.125 0.5 0.25
2.125 0.5 0.125
2.25 0.375 0.125
2.25 0.375 0.25
2.25 0.5 0.125
2.125 0.5 0
2.25 0.375 0
2.375 0.375 0.25
2.375 0.5 0.125
2.375 0.5 0
2.375 0.375 0
2.5 0.375 0
2.5 0.375 0.125
2.5 0.375 0.25
2.375 0.5 0.25
2.5 0.5 0.125
2.625 0.375 0
2.625 0.375 0.25
2.625 0.5 0.25
2.625 0.5 0.125
2.75 0.375 0.125
2.75 0.375 0.25
2.75 0.5 0.125
2.625 0.5 0
2.75 0.375 0
2.875 0.375 0.25
2.875 0.5 0.125
2.875 0.5 0
2.875 0.375 0
3 0.375 0
3 0.375 0.125
3 0.375 0.25
2.875 0.5 0.25
3 0.5 0.125
3.125 0.375 0
3.125 0.375 0.25
3.125 0.5 0.25
3.125 0.5 0.125
3.25 0.375 0.125
3.25 0.375 0.25
3.25 0.5 0.125
3.125 0.5 0
3.25 0.375 0
3.375 0.375 0.25
3.375 0.5 0.125
3.375 0.5 0
3.375 0.375 0
3.5 0.375 0
3.5 0.375 0.125
3.5 0.375 0.25
3.375 0.5 0.25
3.5 0.5 0.125
3.625 0.375 0
3.625 0.375 0.25
3.625 0.5 0.25
3.625 0.5 0.125
3.75 0.375 0.125
3.75 0.375 0.25
3.75 0.5 0.125
3.625 0.5 0
3.75 0.375 0
3.875 0.375 0.25
3.875 0.5 0.125
3.875 0.5 0
3.875 0.375 0
4 0.375 0
4 0.375 0.125
4 0.375 0.25
3.875 0.5 0.25
4 0.5 0.125
0 0.625 0.25
0 0.625 0.125
0.125 0.625 0.25
[...]
POINT_DATA 16225
SCALARS weights float 1
LOOKUP_TABLE default
0.203451 0.0406901 0.0203451 0.101725 0.203451 0.0406901 0.203451 0.0508626 0.0406901 0.0406901 0.0406901 0.101725 0.203451 0.0406901 0.0406901 0.0203451 0.101725 0.101725 0.0406901 0.101725 0.0406901 0.0203451 0.0203451 0.0203451 0.0406901 0.203451 0.101725 0.0406901 0.0406901 0.203451 0.0203451 0.101725 0.203451 0.0406901 0.101725 0.0203451 0.0203451 0.203451 0.0203451 0.203451 0.203451 0.203451 0.101725 0.203451 0.0406901 0.0406901 0.0203451 0.101725 0.0406901 0.0406901 0.101725 0.203451 0.101725 0.101725 0.0203451 0.101725 0.0508626 0.0203451 0.101725 0.203451 0.0406901 0.0406901 0.0203451 0.203451 0.203451 0.0406901 0.101725 0.0508626 0.0203451 0.0203451 0.203451 0.203451 0.0406901 0.0203451 0.0406901 0.0406901 0.203451 0.203451 0.203451 0.0406901 0.0203451 0.203451 0.0203451 0.0406901 0.0406901 0.203451 0.0406901 0.0406901 0.101725 0.203451 0.0203451 0.0406901 0.0508626 0.203451 0.0406901 0.0203451 0.203451 0.203451 0.0406901 0.0406901 0.203451 0.0406901 0.0203451 0.203451 0.203451 0.101725 0.203451 0.0406901 0.203451 0.0406901 0.0406901 0.203451 0.203451 0.0406901 0.0406901 0.203451 0.203451 0.0406901 0.0406901 0.203451 0.203451 0.0406901 0.0406901 0.203451 0.203451 0.0406901 0.0406901 0.203451 0.203451 0.0406901 0.0406901 0.203451 0.203451 0.0406901 0.101725 0.203451 0.101725 0.0406901 0.0508626 0.0203451 0.0406901 0.203451 0.0203451 0.203451 0.101725 0.0406901 0.0203451 0.203451 0.101725 0.0406901 0.0203451 0.203451 0.101725 0.0406901 0.0203451 0.203451 0.101725 0.0406901 0.0203451 0.203451 0.101725 0.0406901 0.0203451 0.203451 0.101725 0.0406901 0.0203451 0.203451 0.101725 0.0406901 0.0203451 0.203451 0.0406901 0.0203451 0.0508626 0.0203451 0.203451 0.203451 0.0406901 0.0406901 0.203451 0.203451 0.0406901 0.0406901 0.203451 0.203451 0.0406901 0.0406901 0.203451 0.203451 0.0406901 0.0406901 0.203451 0.203451 0.0406901 0.0406901 0.203451 0.203451 0.0406901 0.203451 0.203451 0.0406901 0.0508626 0.203451 0.203451 0.203451 0.0203451 0.0813802 0.406901 0.0813802 0.406901 0.0813802 0.406901 0.0813802 0.406901 0.0813802 0.406901 0.0813802 0.406901 0.0813802 0.406901 0.0813802 0.0406901 0.0203451 0.406901 0.0813802 0.406901 0.0813802 0.406901 0.0813802 0.406901 0.0813802 0.406901 0.0813802 0.406901 0.0813802 0.406901 0.0813802 0.406901 0.203451 0.203451 0.0813802 0.406901 0.0813802 0.406901 0.0813802 0.406901 0.0813802 0.406901 0.0813802 0.406901 0.0813802 0.406901 0.0813802 0.406901 0.0813802 0.101725 0.0203451 0.0203451 0.203451 0.0406901 0.101725 0.203451 0.0203451 0.0406901 0.101725 0.203451 0.0203451 0.0406901 0.101725 0.203451 0.0203451 0.0406901 0.101725 0.203451 0.0203451 0.0406901 0.101725 0.203451 0.0203451 0.0406901 0.101725 0.203451 0.0203451 0.0406901 0.101725 0.203451 0.0203451 0.0406901 0.203451 0.0406901 0.0508626 0.406901 0.0813802 0.406901 0.0813802 0.406901 0.0813802 0.406901 0.0813802 0.406901 0.0813802 0.406901 0.0813802 0.406901 0.0813802 0.406901 0.203451 0.101725 0.0813802 0.406901 0.0813802 0.406901 0.0813802 0.406901 0.0813802 0.406901 0.0813802 0.406901 0.0813802 0.406901 0.0813802 0.406901 0.0813802 0.0406901 0.0406901 0.406901 0.0813802 0.406901 0.0813802 0.406901 0.0813802 0.406901 0.0813802 0.406901 0.0813802 0.406901 0.0813802 0.406901 0.0813802 0.406901 0.0203451 0.0203451 0.0203451 0.0203451 0.203451 0.0406901 0.0406901 0.203451 0.203451 0.0406901 0.0406901 0.203451 0.203451 0.0406901 0.0406901 0.203451 0.203451 0.0406901 0.0406901 0.203451 0.203451 0.0406901 0.0406901 0.203451 0.203451 0.0406901 0.0406901 0.203451 0.203451 0.0406901 0.0406901 0.203451 0.203451 0.203451 0.203451 0.0813802 0.406901 0.0813802 0.406901 0.0813802 0.406901 0.0813802 0.406901 0.0813802 0.406901 0.0813802 0.406901 0.0813802 0.406901 0.0813802 0.0406901 0.0203451 0.406901 0.0813802 0.406901 0.0813802 0.406901 0.0813802 0.406901 0.0813802 0.406901 0.0813802 0.406901 0.0813802 0.406901 0.0813802 0.406901 0.203451 0.203451 0.0813802 0.406901 0.0813802 0.406901 0.0813802 0.406901 0.0813802 0.406901 0.0813802 0.406901 0.0813802 0.406901 0.0813802 0.406901 0.0813802 0.0406901 0.101725 0.16276 0.223796 0.101725 0.325521 0.0813802 0.0610352 0.386556 0.101725 0.183105 0.0406901 0.101725 0.0813802 0.366211 0.183105 0.223796 0.183105 0.0610352 0.16276 0.203451 0.406901 0.183105 0.386556 0.0813802 0.101725 0.366211 0.183105 0.183105 0.101725 0.101725 0.223796 0.101725 0.366211 0.386556 0.101725 0.183105 0.0406901 0.101725 0.0813802 0.366211 0.183105 0.223796 0.183105 0.0610352 0.16276 0.203451 0.406901 0.183105 0.386556 0.0813802 0.101725 0.366211 0.183105 0.183105 0.101725 0.101725 0.223796 0.101725 0.366211 0.386556 0.101725 0.183105 0.0406901 0.101725 0.0813802 0.366211 0.183105 0.223796 0.183105 0.0610352 0.16276 0.203451 0.406901 0.183105 0.386556 0.0813802 0.101725 0.366211 0.183105 0.183105 0.101725 0.101725 0.223796 0.101725 0.366211 0.386556 0.101725 0.183105 0.0406901 0.101725 0.0813802 0.366211 0.183105 0.223796 0.183105 0.0610352 0.16276 0.203451 0.406901 0.183105 0.386556 0.0813802 0.101725 0.366211 0.183105 0.183105 0.101725 0.101725 0.223796 0.101725 0.366211 0.386556 0.101725 0.183105 0.0406901 0.101725 0.0813802 0.366211 0.183105 0.223796 0.183105 0.0610352 0.16276 0.203451 0.406901 0.183105 0.386556 0.0813802 0.101725 0.366211 0.183105 0.183105 0.101725 0.101725 0.223796 0.101725 0.366211 0.386556 0.101725 0.183105 0.0406901 0.101725 0.0813802 0.366211 0.183105 0.223796 0.183105 0.0610352 0.16276 0.203451 0.406901 0.183105 0.386556 0.0813802 0.101725 0.366211 0.183105 0.183105 0.101725 0.101725 0.223796 0.101725 0.366211 0.386556 0.101725 0.183105 0.0406901 0.101725 0.0813802 0.366211 0.183105 0.223796 0.183105 0.0610352 0.16276 0.203451 0.406901 0.183105 0.386556 0.0813802 0.101725 0.366211 0.183105 0.183105 0.101725 0.101725 0.223796 0.101725 0.366211 0.386556 0.101725 0.183105 0.0406901 0.101725 0.0813802 0.366211 0.183105 0.223796 0.183105 0.0610352 0.16276 0.203451 0.406901 0.183105 0.386556 0.0406901 0.101725 0.203451 0.0813802 0.101725 0.101725 0.0406901 0.223796 0.0406901 0.16276 0.101725 0.101725 0.406901 0.183105 0.345866 0.406901 0.183105 0.183105 0.101725 0.101725 0.366211 0.386556 0.101725 0.183105 0.0813802 0.366211 0.183105 0.223796 0.183105 0.203451 0.406901 0.183105 0.386556 0.366211 0.183105 0.183105 0.101725 0.101725 0.366211 0.386556 0.101725 0.183105 0.0813802 0.366211 0.183105 0.223796 0.183105 0.203451 0.406901 0.183105 0.386556 0.366211 0.183105 0.183105 0.101725 0.101725 0.366211 0.386556 0.101725 0.183105 0.0813802 0.366211 0.183105 0.223796 0.183105 0.203451 0.406901 0.183105 0.386556 0.366211 0.183105 0.183105 0.101725 0.101725 0.366211 0.386556 0.101725 0.183105 0.0813802 0.366211 0.183105 0.223796 0.183105 0.203451 0.406901 0.183105 0.386556 0.366211 0.183105 0.183105 0.101725 0.101725 0.366211 0.386556 0.101725 0.183105 0.0813802 0.366211 0.183105 0.223796 0.183105 0.203451 0.406901 0.183105 0.386556 0.366211 0.183105 0.183105 0.101725 0.101725 0.366211 0.386556 0.101725 0.183105 0.0813802 0.366211 0.183105 0.223796 0.183105 0.203451 0.406901 0.183105 0.386556 0.366211 0.183105 0.183105 0.101725 0.101725 0.366211 0.386556 0.101725 0.183105 0.0813802 0.366211 0.183105 0.223796 0.183105 0.203451 0.406901 0.183105 0.386556 0.366211 0.183105 0.183105 0.101725 0.101725 0.366211 0.386556 0.101725 0.183105 0.0406901 0.183105 0.0813802 0.223796 0.0813802 0.101725 0.16276 0.366211 0.0813802 0.0610352 0.345866 0.101725 0.223796 0.0813802 0.366211 0.183105 0.223796 0.183105 0.203451 0.406901 0.183105 0.386556 0.366211 0.183105 0.183105 0.101725 0.101725 0.366211 0.386556 0.101725 0.183105 0.0813802 0.366211 0.183105 0.223796 0.183105 0.203451 0.406901 0.183105 0.386556 0.366211 0.183105 0.183105 0.101725 0.101725 0.366211 0.386556 0.101725 0.183105 0.0813802 0.366211 0.183105 0.223796 0.183105 0.203451 0.406901 0.183105 0.386556 0.366211 0.183105 0.183105 0.101725 0.101725 0.366211 0.386556 0.101725 0.183105 0.0813802 0.366211 0.183105 0.223796 0.183105 0.203451 0.406901 0.183105 0.386556 0.366211 0.183105 0.183105 0.101725 0.101725 0.366211 0.386556 0.101725 0.183105 0.0813802 0.366211 0.183105 0.223796 0.183105 0.203451 0.406901 0.183105 0.386556 0.366211 0.183105 0.183105 0.101725 0.101725 0.366211 0.386556 0.101725 0.183105 0.0813802 0.366211 0.183105 0.223796 0.183105 0.203451 0.406901 0.183105 0.386556 0.366211 0.183105 0.183105 0.101725 0.101725 0.366211 0.386556 0.101725 0.183105 0.0813802 0.366211 0.183105 0.223796 0.183105 0.203451 0.406901 0.183105 0.386556 0.366211 0.183105 0.183105 0.101725 0.101725 0.366211 0.386556 0.101725 0.183105 0.0813802 0.366211 0.183105 0.223796 0.183105 0.203451 0.406901 0.183105 0.386556 0.203451 0.0813802 0.101725 0.101725 0.0406901 0.223796 0.0406901 0.16276 0.101725 0.0610352 0.406901 0.0813802 0.16276 0.406901 0.183105 0.0813802 0.0610352 0.101725 0.366211 0.223796 0.0406901 0.183105 0.0813802 0.366211 0.183105 0.12207 0.101725 0.203451 0.406901 0.0813802 0.16276 0.366211 0.183105 0.0813802 0.0610352 0.101725 0.366211 0.223796 0.0406901 0.183105 0.0813802 0.366211 0.183105 0.12207 0.101725 0.203451 0.406901 0.0813802 0.16276 0.366211 0.183105 0.0813802 0.0610352 0.101725 0.366211 0.223796 0.0406901 0.183105 0.0813802 0.366211 0.183105 0.12207 0.101725 0.203451 0.406901 0.0813802 0.16276 0.366211 0.183105 0.0813802 0.0610352 0.101725 0.366211 0.223796 0.0406901 0.183105 0.0813802 0.366211 0.183105 0.12207 0.101725 0.203451 0.406901 0.0813802 0.16276 0.366211 0.183105 0.0813802 0.0610352 0.101725 0.366211 0.223796 0.0406901 0.183105 0.0813802 0.366211 0.183105 0.12207 0.101725 0.203451 0.406901 0.0813802 0.16276 0.366211 0.183105 0.0813802 0.0610352 0.101725 0.366211 0.223796 0.0406901 0.183105 0.0813802 0.366211 0.183105 0.12207 0.101725 0.203451 0.406901 0.0813802 0.16276 0.366211 0.183105 0.0813802 0.0610352 0.101725 0.366211 0.223796 0.0406901 0.183105 0.0813802 0.366211 0.183105 0.12207 0.101725 0.203451 0.406901 0.0813802 0.16276 0.366211 0.183105 0.0813802 0.0610352 0.101725 0.366211 0.223796 0.0406901 0.183105 0.0406901 0.183105 0.0813802 0.12207 0.0406901 0.0406901 0.183105 0.203451 0.101725 0.101725 0.366211 0.183105 0.386556 0.0813802 0.101725 0.366211 0.183105 0.183105 0.223796 0.101725 0.366211 0.386556 0.101725 0.366211 0.183105 0.223796 0.183105 0.16276 0.406901 0.183105 0.386556 0.0813802 0.101725 0.366211 0.183105 0.183105 0.223796 0.101725 0.366211 0.386556 0.101725 0.366211 0.183105 0.223796 0.183105 0.16276 0.406901 0.183105 0.386556 0.0813802 0.101725 0.366211 0.183105 0.183105 0.223796 0.101725 0.366211 0.386556 0.101725 0.366211 0.183105 0.223796 0.183105 0.16276 0.406901 0.183105 0.386556 0.0813802 0.101725 0.366211 0.183105 0.183105 0.223796 0.101725 0.366211 0.386556 0.101725 0.366211 0.183105 0.223796 0.183105 0.16276 0.406901 0.183105 0.386556 0.0813802 0.101725 0.366211 0.183105 0.183105 0.223796 0.101725 0.366211 0.386556 0.101725 0.366211 0.183105 0.223796 0.183105 0.16276 0.406901 0.183105 0.386556 0.0813802 0.101725 0.366211 0.183105 0.183105 0.223796 0.101725 0.366211 0.386556 0.101725 0.366211 0.183105 0.223796 0.183105 0.16276 0.406901 0.183105 0.386556 0.0813802 0.101725 0.366211 0.183105 0.183105 0.223796 0.101725 0.366211 0.386556 0.101725 0.366211 0.183105 0.223796 0.183105 0.16276 0.406901 0.183105 0.386556 0.0813802 0.101725 0.366211 0.183105 0.183105 0.223796 0.101725 0.366211 0.386556 0.0610352 0.183105 0.0813802 0.223796 0.0813802 0.101725 0.16276 0.366211 0.0813802 0.345866 0.366211 0.183105 0.223796 0.183105 0.406901 0.183105 0.386556 0.366211 0.183105 0.183105 0.366211 0.386556 0.366211 0.183105 0.223796 0.183105 0.406901 0.183105 0.386556 0.366211 0.183105 0.183105 0.366211 0.386556 0.366211 0.183105 0.223796 0.183105 0.406901 0.183105 0.386556 0.366211 0.183105 0.183105 0.366211 0.386556 0.366211 0.183105 0.223796 0.183105 0.406901 0.183105 0.386556 0.366211 0.183105 0.183105 0.366211 0.386556 0.366211 0.183105 0.223796 0.183105 0.406901 0.183105 0.386556 0.366211 0.183105 0.183105 0.366211 0.386556 0.366211 0.183105 0.223796 0.183105 0.406901 0.183105 0.386556 0.366211 0.183105 0.183105 0.366211 0.386556 0.366211 0.183105 0.223796 0.183105 0.406901 0.183105 0.386556 0.366211 0.183105 0.183105 0.366211 0.386556 0.366211 0.183105 0.223796 0.183105 0.406901 0.183105 0.386556 0.203451 0.0813802 0.101725 0.223796 0.101725 0.101725 0.406901 0.183105 0.345866 0.406901 0.183105 0.183105 0.366211 0.386556 0.366211 0.183105 0.223796 0.183105 0.406901 0.183105 0.386556 0.366211 0.183105 0.183105 0.366211 0.386556 0.366211 0.183105 0.223796 0.183105 0.406901 0.183105 0.386556 0.366211 0.183105 0.183105 0.366211 0.386556 0.366211 0.183105 0.223796 0.183105 0.406901 0.183105 0.386556 0.366211 0.183105 0.183105 0.366211 0.386556 0.366211 0.183105 0.223796 0.183105 0.406901 0.183105 0.386556 0.366211 0.183105 0.183105 0.366211 0.386556 0.366211 0.183105 0.223796 0.183105 0.406901 0.183105 0.386556 0.366211 0.183105 0.183105 0.366211 0.386556 0.366211 0.183105 0.223796 0.183105 0.406901 0.183105 0.386556 0.366211 0.183105 0.183105 0.366211 0.386556 0.366211 0.183105 0.223796 0.183105 0.406901 0.183105 0.386556 0.366211 0.183105 0.183105 0.366211 0.386556 0.183105 0.0813802 0.223796 0.0813802 0.101725 0.16276 0.366211 0.0406901 0.183105 0.366211 0.183105 0.12207 0.101725 0.406901 0.0813802 0.16276 0.366211 0.183105 0.0813802 0.366211 0.223796 0.366211 0.183105 0.12207 0.101725 0.406901 0.0813802 0.16276 0.366211 0.183105 0.0813802 0.366211 0.223796 0.366211 0.183105 0.12207 0.101725 0.406901 0.0813802 0.16276 0.366211 0.183105 0.0813802 0.366211 0.223796 0.366211 0.183105 0.12207 0.101725 0.406901 0.0813802 0.16276 0.366211 0.183105 0.0813802 0.366211 0.223796 0.366211 0.183105 0.12207 0.101725 0.406901 0.0813802 0.16276 0.366211 0.183105 0.0813802 0.366211 0.223796 0.366211 0.183105 0.12207 0.101725 0.406901 0.0813802 0.16276 0.366211 0.183105 0.0813802 0.366211 0.223796 0.366211 0.183105 0.12207 0.101725 0.406901 0.0813802 0.16276 0.366211 0.183105 0.0813802 0.366211 0.223796 0.366211 0.183105 0.12207 0.101725 0.406901 0.0813802 0.16276 0.203451 0.0813802 0.0406901 0.0406901 0.101725 0.203451 0.183105 0.101725 0.325521 0.0813802 0.345866 0.101725 0.406901 0.183105 0.223796 0.183105 0.16276 0.406901 0.183105 0.386556 0.0813802 0.101725 0.366211 0.183105 0.183105 0.223796 0.101725 0.366211 0.386556 0.101725 0.366211 0.183105 0.223796 0.183105 0.16276 0.406901 0.183105 0.386556 0.0813802 0.101725 0.366211 0.183105 0.183105 0.223796 0.101725 0.366211 0.386556 0.101725 0.366211 0.183105 0.223796 0.183105 0.16276 0.406901 0.183105 0.386556 0.0813802 0.101725 0.366211 0.183105 0.183105 0.223796 0.101725 0.366211 0.386556 0.101725 0.366211 0.183105 0.223796 0.183105 0.16276 0.406901 0.183105 0.386556 0.0813802 0.101725 0.366211 0.183105 0.183105 0.223796 0.101725 0.366211 0.386556 0.101725 0.366211 0.183105 0.223796 0.183105 0.16276 0.406901 0.183105 0.386556 0.0813802 0.101725 0.366211 0.183105 0.183105 0.223796 0.101725 0.366211 0.386556 0.101725 0.366211 0.183105 0.223796 0.183105 0.16276 0.406901 0.183105 0.386556 0.0813802 0.101725 0.366211 0.183105 0.183105 0.223796 0.101725 0.366211 0.386556 0.101725 0.366211 0.183105 0.223796 0.183105 0.16276 0.406901 0.183105 0.386556 0.0813802 0.101725 0.366211 0.183105 0.183105 0.223796 0.101725 0.366211 0.386556 0.101725 0.366211 0.183105 0.223796 0.183105 0.16276 0.406901 0.183105 0.386556 0.0406901 0.101725 0.203451 0.0813802 0.101725 0.223796 0.101725 0.101725 0.406901 0.183105 0.345866 0.406901 0.183105 0.183105 0.366211 0.386556 0.366211 0.183105 0.223796 0.183105 0.406901 0.183105 0.386556 0.366211 0.183105 0.183105 0.366211 0.386556 0.366211 0.183105 0.223796 0.183105 0.406901 0.183105 0.386556 0.366211 0.183105 0.183105 0.366211 0.386556 0.366211 0.183105 0.223796 0.183105 0.406901 0.183105 0.386556 0.366211 0.183105 0.183105 0.366211 0.386556 0.366211 0.183105 0.223796 0.183105 0.406901 0.183105 0.386556 0.366211 0.183105 0.183105 0.366211 0.386556 0.366211 0.183105 0.223796 0.183105 0.406901 0.183105 0.386556 0.366211 0.183105 0.183105 0.366211 0.386556 0.366211 0.183105 0.223796 0.183105 0.406901 0.183105 0.386556 0.366211 0.183105 0.183105 0.366211 0.386556 0.366211 0.183105 0.223796 0.183105 0.406901 0.183105 0.386556 0.366211 0.183105 0.183105 0.366211 0.386556 0.183105 0.0813802 0.223796 0.0813802 0.101725 0.16276 0.366211 0.0813802 0.345866 0.366211 0.183105 0.223796 0.183105 0.406901 0.183105 0.386556 0.366211 0.183105 0.183105 0.366211 0.386556 0.366211 0.183105 0.223796 0.183105 0.406901 0.183105 0.386556 0.366211 0.183105 0.183105 0.366211 0.386556 0.366211 0.183105 0.223796 0.183105 0.406901 0.183105 0.386556 0.366211 0.183105 0.183105 0.366211 0.386556 0.366211 0.183105 0.223796 0.183105 0.406901 0.183105 0.386556 0.366211 0.183105 0.183105 0.366211 0.386556 0.366211 0.183105 0.223796 0.183105 0.406901 0.183105 0.386556 0.366211 0.183105 0.183105 0.366211 0.386556 0.366211 0.183105 0.223796 0.183105 0.406901 0.183105 0.386556 0.366211 0.183105 0.183105 0.366211 0.386556 0.366211 0.183105 0.223796 0.183105 0.406901 0.183105 0.386556 0.366211 0.183105 0.183105 0.366211 0.386556 0.366211 0.183105 0.223796 0.183105 0.406901 0.183105 0.386556 0.203451 0.0813802 0.101725 0.223796 0.101725 0.0610352 0.406901 0.0813802 0.16276 0.406901 0.183105 0.0813802 0.366211 0.223796 0.366211 0.183105 0.12207 0.101725 0.406901 0.0813802 0.16276 0.366211 0.183105 0.0813802 0.366211 0.223796 0.366211 0.183105 0.12207 0.101725 0.406901 0.0813802 0.16276 0.366211 0.183105 0.0813802 0.366211 0.223796 0.366211 0.183105 0.12207 0.101725 0.406901 0.0813802 0.16276 0.366211 0.183105 0.0813802 0.366211 0.223796 0.366211 0.183105 0.12207 0.101725 0.406901 0.0813802 0.16276 0.366211 0.183105 0.0813802 0.366211 0.223796 0.366211 0.183105 0.12207 0.101725 0.406901 0.0813802 0.16276 0.366211 0.183105 0.0813802 0.366211 0.223796 0.366211 0.183105 0.12207 0.101725 0.406901 0.0813802 0.16276 0.366211 0.183105 0.0813802 0.366211 0.223796 0.366211 0.183105 0.12207 0.101725 0.406901 0.0813802 0.16276 0.366211 0.183105 0.0813802 0.366211 0.223796 0.183105 0.0813802 0.12207 0.0406901 0.0406901 0.183105 0.203451 0.0406901 0.101725 0.183105 0.0813802 0.386556 0.0813802 0.0610352 0.366211 0.101725 0.183105 0.223796 0.0406901 0.16276 0.386556 0.101725 0.366211 0.0813802 0.12207 0.183105 0.16276 0.223796 0.0813802 0.386556 0.0813802 0.0610352 0.366211 0.101725 0.183105 0.223796 0.0406901 0.16276 0.386556 0.101725 0.366211 0.0813802 0.12207 0.183105 0.16276 0.223796 0.0813802 0.386556 0.0813802 0.0610352 0.366211 0.101725 0.183105 0.223796 0.0406901 0.16276 0.386556 0.101725 0.366211 0.0813802 0.12207 0.183105 0.16276 0.223796 0.0813802 0.386556 0.0813802 0.0610352 0.366211 0.101725 0.183105 0.223796 0.0406901 0.16276 0.386556 0.101725 0.366211 0.0813802 0.12207 0.183105 0.16276 0.223796 0.0813802 0.386556 0.0813802 0.0610352 0.366211 0.101725 0.183105 0.223796 0.0406901 0.16276 0.386556 0.101725 0.366211 0.0813802 0.12207 0.183105 0.16276 0.223796 0.0813802 0.386556 0.0813802 0.0610352 0.366211 0.101725 0.183105 0.223796 0.0406901 0.16276 0.386556 0.101725 0.366211 0.0813802 0.12207 0.183105 0.16276 0.223796 0.0813802 0.386556 0.0813802 0.0610352 0.366211 0.101725 0.183105 0.223796 0.0406901 0.16276 0.386556 0.101725 0.366211 0.0813802 0.12207 0.183105 0.16276 0.223796 0.0813802 0.386556 0.0813802 0.0610352 0.366211 0.101725 0.183105 0.223796 0.0406901 0.16276 0.386556 0.0610352 0.183105 0.0406901 0.12207 0.0813802 0.0610352 0.16276 0.203451 0.0813802 0.345866 0.366211 0.0813802 0.12207 0.183105 0.223796 0.0813802 0.386556 0.366211 0.101725 0.183105 0.16276 0.386556 0.366211 0.0813802 0.12207 0.183105 0.223796 0.0813802 0.386556 0.366211 0.101725 0.183105 0.16276 0.386556 0.366211 0.0813802 0.12207 0.183105 0.223796 0.0813802 0.386556 0.366211 0.101725 0.183105 0.16276 0.386556 0.366211 0.0813802 0.12207 0.183105 0.223796 0.0813802 0.386556 0.366211 0.101725 0.183105 0.16276 0.386556 0.366211 0.0813802 0.12207 0.183105 0.223796 