# vtk DataFile Version 5.1
vtk output
ASCII

DATASET UNSTRUCTURED_GRID
POINTS 8 float
-0.1 -0.1 -0.1
1.1 -0.1 -0.1
-0.1 0 -0.1
1.1 0 -0.1
-0.1 -0.1 1.1
1.1 -0.1 1.1
-0.1 0 1.1
1.1 0 1.1

CELLS 7 24
OFFSETS vtktypeint64
0 4 8 12 16 20 24 
CONNECTIVITY vtktypeint64
0 4 1 2 
2 1 3 4 
4 6 3 2 
1 5 3 4 
3 5 6 4 
3 6 5 7 
CELL_TYPES 6
10 10 10 10 10 10 

POINT_DATA 8
SCALARS scalars float 1
LOOKUP_TABLE default
2.35608e-08 7.45058e-09 2.35608e-08 7.45058e-09 2.23517e-08 0 2.23517e-08 0 
