# vtk DataFile Version 5.1
vtk output
ASCII

DATASET UNSTRUCTURED_GRID
POINTS 15779 float
-0.542796 -0.517466 0
-0.555886 0.482453 0
0.444033 0.495542 0
0.457122 -0.504376 0
-0.538421 -0.527797 4
0.461497 -0.540887 4
0.474586 0.459032 4
-0.525332 0.472121 4
-0.549341 -0.0175063 0
-0.0559262 0.488998 0
0.450578 -0.00441704 0
-0.0428369 -0.510921 0
-0.0384621 -0.534342 4
0.468042 -0.0409277 4
-0.0253726 0.465576 4
-0.531877 -0.027838 4
0.444577 0.46503 2.00484
0.440484 -0.513516 1.98968
-0.54418 -0.506895 1.99797
-0.532559 0.465509 2.00504
0.211518 -0.537615 4
-0.535149 -0.277818 4
-0.524334 0.459061 2.99579
-0.536652 -0.494112 1.00419
-0.538588 0.485911 1.00154
0.434948 0.468384 1.01128
-0.0598412 -0.707664 1.48834
-0.7367 0.00705817 0.489515
-0.738887 -0.0147066 1.50429
-0.0412445 0.687518 0.514573
0.646831 -0.0322312 0.511403
-0.689838 0.245757 0.252178
-0.288442 -0.53107 4
-0.528604 0.222142 4
0.428687 -0.50684 0.990069
0.45771 0.439949 3.00318
0.443761 -0.526826 2.99266
-0.531817 -0.513874 3.0079
-0.718843 -0.0354841 3.50373
-0.0401469 0.66932 2.50883
-0.0386573 0.680989 1.50972
-0.327257 -0.646075 1.2422
0.207266 -0.664792 1.74931
-0.698153 -0.267624 0.746071
-0.739364 -0.027449 2.49245
-0.046893 -0.722376 2.48993
0.648234 -0.0320583 3.48987
0.644999 -0.0451796 2.49313
-0.0390972 0.651203 3.50875
0.643444 -0.0373328 1.50043
-0.0588155 -0.711097 0.509532
-0.0307715 -0.733155 3.49741
-0.303232 0.613537 2.75626
-0.670226 -0.303173 3.75297
-0.66595 0.237874 3.25569
0.220164 0.602721 2.25304
0.587402 0.24058 1.74696
0.236848 0.598576 3.25616
-0.304224 0.598758 3.73263
0.600114 -0.295539 2.23639
0.597368 0.213314 2.75034
0.582523 -0.280947 1.25475
-0.318891 -0.650849 0.247442
0.20458 -0.660991 0.749766
0.310868 0.412503 0.274214
0.362439 0.249545 1.37502
-0.0493816 -0.0109617 0
-0.524736 0.138125 2.75534
0.365439 -0.293686 0.62637
-0.158543 -0.157736 4
-0.546069 -0.267486 0
-0.302634 0.235746 0
0.197326 0.24229 0
0.143437 -0.495072 3.24618
0.455691 0.0523383 3.11959
-0.550335 0.090154 0.867815
-0.509326 -0.21753 2.25226
0.391404 0.323417 3.16572
-0.551243 0.00247402 3.11462
-0.148048 -0.501563 0.868301
-0.305906 0.485725 0
-0.680359 -0.285021 2.75001
-0.303525 0.623287 0.741189
0.20387 -0.257669 0
0.221335 0.212324 4
0.367889 -0.302402 1.62103
-0.445421 0.336201 0.402233
-0.237989 0.444389 1.25724
-0.416989 -0.371812 3.60959
-0.583986 -0.192146 0.910295
-0.149031 -0.517833 1.86817
0.380697 -0.372588 0.279989
0.494551 0.15515 2.90461
0.472829 -0.180348 0.549945
-0.292817 -0.514193 0
-0.353549 -0.445637 3.41249
0.52066 0.00929684 3.77683
0.46477 -0.290907 4
-0.527012 0.124258 3.65187
0.3804 -0.336166 0.835391
-0.000791781 0.541021 0.222785
-0.385354 -0.398032 0.39274
0.496787 -0.057759 0.226235
-0.275352 0.468849 4
-0.510393 -0.280662 3.10477
-0.427509 -0.363894 2.59944
-0.298736 0.449945 2.60031
-0.125343 0.455658 3.12421
-0.485714 0.261358 2.85497
-0.679883 0.248108 2.24993
0.130225 0.448995 3.65191
-0.0879326 0.506335 0.900893
-0.552613 0.232473 0
0.333657 -0.387726 2.70924
0.20672 0.478571 3.41407
-0.489284 0.239598 1.73835
0.507059 0.0293484 1.3396
0.599435 0.238468 3.73575
0.602349 -0.299423 3.24711
0.523922 -0.0745056 2.6532
0.235067 -0.677888 3.73402
0.18604 -0.51974 0.592552
-0.145543 -0.5503 1.64845
-0.678735 0.257265 1.25548
-0.481451 -0.309974 1.23982
-0.129556 0.457215 2.13095
0.0898002 -0.285999 4
-0.317961 -0.665725 2.24182
-0.590696 -0.0873952 3.33954
-0.0258258 -0.576568 0.345024
0.444969 0.154518 1.05714
0.132304 -0.551294 1.91197
-0.503828 -0.28381 0.531181
-0.398211 0.409448 1.1625
-0.608503 0.00592254 2.66567
0.112078 -0.544879 0.906973
-0.311641 0.433532 0.549657
0.456044 -0.25814 3.48832
0.239113 -0.45383 2.2485
0.367596 0.235451 2.37288
-0.599682 -0.0717298 2.34261
0.21031 0.616401 1.24699
0.207086 0.473192 2.41456
-0.0320269 0.497463 1.79549
0.473897 0.0977817 1.90439
-0.54444 0.18913 1.9911
-0.429824 -0.429887 0.838989
-0.130245 0.496589 3.34488
-0.439657 0.374301 0.792614
-0.353758 0.346261 3.39253
0.373574 -0.412387 3.2369
-0.280261 0.0938794 4
0.220815 -0.674424 2.73949
-0.300741 -0.670139 3.2535
-0.0573527 0.537465 2.3445
0.146336 0.463556 0.963286
0.359487 0.264322 3.3912
0.239543 -0.422746 0.3756
0.600918 0.246743 0.755967
0.410106 0.255844 3.59196
0.452776 -0.0413715 1.10768
0.474326 0.214202 1.58892
0.507315 -0.0719112 3.23919
-0.30619 0.618947 1.77188
-0.409785 -0.445767 2.8406
-0.538527 0.143955 0.665286
0.286688 0.404264 2.84714
-0.405798 0.394536 3.16249
-0.280416 0.466721 3.5879
-0.379346 0.353389 2.44029
-0.684422 -0.269593 1.74551
-0.0163494 0.538966 2.66226
-0.110759 -0.559866 0.639062
-0.552178 -0.0871652 1.99925
0.367912 0.360104 2.16203
0.330033 -0.441899 1.15864
0.0208545 -0.590088 3.34019
0.389036 -0.339531 1.83585
-0.242459 -0.571105 3.08775
0.0446202 -0.547068 1.339
-0.106526 0.535927 1.34827
0.217492 0.381567 2.66462
-0.108055 -0.542699 3.76891
-0.254971 -0.222005 0
0.376853 0.28193 0.586334
0.0915264 -0.529892 2.36622
-0.471603 0.32005 2.30318
-0.305643 -0.522952 2.41231
0.127958 0.500466 1.53634
-0.104428 -0.527931 1.0889
-0.54519 0.230344 1.44836
-0.577386 0.0805385 1.1142
0.0725136 -0.0149149 4
0.475343 0.153398 2.47701
-0.0232002 -0.549333 2.90898
0.0107104 0.539371 0.662909
-0.566264 -0.0718919 0.226448
0.451268 -0.284315 2.97256
0.139704 0.501105 2.07792
0.480114 0.0242837 0.815798
-0.490514 -0.290715 1.52277
-0.368597 0.354857 1.50394
0.34837 -0.33751 2.49109
-0.196663 -0.535159 2.64918
0.239178 -0.424796 1.31563
-0.588202 -0.00357838 1.72981
0.183868 -0.539121 1.58598
-0.291622 0.466736 2.04681
0.505659 -0.0668777 1.64745
-0.279591 0.502061 1.60188
-0.470362 -0.410677 2.16332
-0.0512599 0.210086 4
0.224607 0.462304 4
0.484342 -0.112457 2.13688
0.144186 0.501772 3.08988
-0.225801 0.497597 2.90985
0.298891 -0.442631 3.66195
0.363871 0.261698 0.370094
0.173617 0.433151 1.84997
-0.435809 -0.434747 1.8369
-0.108088 -0.533163 2.08382
0.442474 0.103015 2.12997
-0.0915538 0.0538034 1.94266
0.176928 0.01963 0.638824
0.163544 -0.0300645 3.62747
-0.0417254 -0.0479814 2.71474
-0.0945643 0.569119 0.412266
-0.467879 -0.399199 3.75751
-0.0244292 0.142738 1.37099
-0.565862 -0.284288 0.649588
0.518778 0.0734413 0.433346
0.101606 -0.271537 2.57491
-0.0285223 -0.278074 0
0.194198 0.173748 3.54955
-0.0937565 -0.106932 3.16876
0.45933 -0.10675 2.87446
0.475754 -0.26706 2.41342
0.130574 -0.591163 3.83136
0.104174 -0.242261 0.716596
0.0203745 0.287765 0.438581
0.218439 0.169521 0.919042
-0.166412 -0.0419048 2.33487
-0.225791 0.148086 0.970852
0.0581179 -0.164924 1.09973
-0.141929 0.524143 3.80473
0.182354 -0.57794 2.90235
-0.0847145 0.0423825 3.77914
-0.16535 0.330595 0.696087
0.00203484 0.517012 1.15424
0.288852 -0.165813 1.29258
-0.278802 0.00687033 0
-0.148806 -0.292503 2.73742
-0.249401 -0.0624596 1.64855
0.176926 0.40684 3.77935
-0.586691 -0.205562 3.52936
0.126369 -0.0757137 0.299907
-0.253421 0.161478 3.01995
-0.608258 0.123773 0.53977
0.254371 0.0152618 2.74937
-0.216909 0.187922 2.73615
-0.25269 -0.132696 2.90419
-0.345695 0.0716105 2.59994
-0.62437 -0.0124649 1.32582
0.198046 -0.0139182 3.25097
0.157254 -0.0010581 2.43941
-0.256712 -0.490016 3.81733
0.273168 0.0160264 4
0.201186 0.0783717 1.74115
0.0754035 -0.424626 2.72408
-0.23711 -0.325351 3.13583
-0.469631 0.213656 3.75522
-0.0106704 0.093086 1.09802
-0.414977 -0.44801 0.241504
-0.00642982 -0.211975 1.40636
-0.555009 0.210875 3.41377
-0.0217554 0.261274 2.44166
-0.0526539 0.239018 0
0.0716032 -0.341509 1.74544
-0.275021 -0.183077 1.03273
0.0947821 0.277632 3.25002
0.0942979 -0.348673 3.7448
-0.306732 0.029117 1.29055
0.0328169 -0.281592 3.39733
-0.0265981 0.320238 3.53389
-0.286631 -0.463399 1.66931
0.269948 0.369449 1.613
-0.0963573 -0.232497 1.89861
-0.170623 -0.281638 2.49043
-0.487991 0.350208 0.245641
-0.316728 -0.0325336 3.27666
-0.439248 0.410565 1.80552
-0.0700885 -0.0505156 0.849309
-0.147421 0.23117 1.6831
0.445778 -0.201754 3.77375
-0.0609455 0.035003 3.43402
0.100967 0.184212 2.1208
-0.000885511 0.471193 2.90188
0.227422 -0.0180564 1.02359
-0.104672 -0.53097 3.01934
0.29764 0.421844 1.28537
0.354889 -0.0645452 3.42302
-0.538605 -0.0301949 3.85576
0.200598 -0.00768936 0
-0.501374 -0.241703 0.18504
-0.319364 0.0133397 1.84398
-0.170595 -0.359845 2.24725
-0.118028 -0.00918669 0.523021
-0.273633 -0.546417 1.42834
0.233105 0.0796099 3.01768
-0.027795 -0.52309 0.177262
-0.404497 -0.0678513 0.610616
-0.0579037 -0.267629 0.227369
0.0196575 0.175189 0.817306
-0.250706 -0.180766 3.7289
-0.119156 -0.278584 0.469881
-0.487852 -0.0517393 1.55223
-0.165507 -0.225595 0.681105
-0.583808 -0.219515 2.89674
0.0107283 0.202134 2.82292
-0.320568 0.155953 2.13186
-0.162611 0.231213 2.28346
-0.574556 -0.245147 1.9411
-0.362847 -0.108274 2.48417
0.151414 -0.070715 1.92143
-0.0679058 0.473038 1.96229
0.10847 -0.249828 3.00184
-0.162772 0.2038 0.295428
-0.342273 -0.01868 0.353661
-0.405707 -0.381619 1.44629
-0.333168 -0.239621 2.01567
-0.294636 0.0680984 0.77141
-0.121251 -0.134768 2.12355
0.20818 -0.294182 0.969363
0.254317 -0.123876 1.52377
0.00329585 0.256025 1.8141
0.000313128 0.0049969 1.58312
0.0973599 0.253935 1.51982
-0.115486 -0.596556 3.60173
0.113846 -0.259591 2.33588
0.372403 -0.441016 2.15101
-0.200456 -0.380782 1.2611
0.223324 -0.0435897 2.17876
-0.329948 0.0342813 3.50227
0.270238 -0.283722 2.01613
0.120769 -0.208913 0.457576
-0.171539 -0.265084 1.56277
-0.253753 0.150373 3.64556
0.104123 0.292101 1.20068
-0.166904 0.190806 3.25785
-0.0475678 0.29109 3.78363
-0.183038 -0.177434 3.50632
-0.104919 0.472791 1.05014
0.33534 0.410262 1.88976
-0.130773 -0.0291732 0.236879
0.0860756 0.274828 3.01414
0.00857155 -0.00339315 2.95787
0.0404329 0.0173136 3.70332
0.11657 -0.186321 3.68536
0.00454327 -0.154762 3.76104
-0.112677 -0.0816003 3.64421
-0.00608801 -0.120231 3.56659
-0.0563435 -0.280225 3.6268
-0.132918 -0.443407 2.16772
-0.22954 -0.390035 2.05316
-0.260017 -0.310976 2.13174
-0.152988 -0.244112 2.18568
-0.1042 -0.337321 2.1167
-0.223766 -0.194216 2.07023
-0.114156 -0.144734 0.493381
-0.238011 -0.153791 0.412843
[...]
POINT_DATA 15779
SCALARS scalars float 1
LOOKUP_TABLE default
1.45694 1.44226 1.37197 1.38739 1.46106 1.41701 1.36732 1.41291 1.04949 0.990578 0.950588 1.01183 1.03506 0.968907 0.96591 1.03225 0.065712 0.061898 0.0447606 0.047699 1.13562 1.16195 1.02516 1.03668 0.986667 0.93555 0.597229 1.33665 0.540921 1.27313 1.26437 1.40423 1.1632 1.13179 1.00941 0.940906 0.944171 1.0144 1.33129 0.566132 0.49567 0.840091 0.335932 1.22048 0.579271 0.504835 1.23996 0.477424 1.27121 0.55615 1.33384 1.31941 0.811241 1.41934 1.19507 0.298109 0.273765 1.12967 1.36174 0.228062 0.719929 0.785309 1.41246 1.19799 1.04738 0.440556 0.0505836 0.611972 0.873776 0.40042 1.16707 0.735767 0.665169 0.811863 0.716073 0.806971 0.217742 0.833963 0.832962 0.819497 1.13167 0.805474 1.14037 0.680974 0.660227 0.330024 1.0126 0.51593 1.02667 0.904356 0.15025 1.07707 0.689153 0.984298 1.15032 0.96767 1.05342 1.10606 1.02736 0.855669 1.07078 1.02846 1.04349 1.10212 0.843659 0.4949 0.536025 0.773743 0.718493 0.309528 0.949391 0.754357 1.15792 0.519451 0.982302 0.177804 0.530148 1.3245 1.12045 0.489538 1.38852 1.02392 0.353056 0.778091 0.64333 0.136568 0.577437 0.246313 1.0244 1.12045 0.673013 0.144404 1.012 0.668311 0.602771 0.899123 0.944769 0.95781 0.126286 0.270135 0.338372 0.719791 0.361175 0.147083 0.112438 0.0541869 0.944908 0.942187 0.894572 0.902308 0.888998 0.573659 0.741693 1.18699 0.339758 0.706627 0.835559 0.95993 1.12969 0.971495 0.636661 0.345919 0.851672 0.22845 0.702434 0.930532 0.644361 0.915693 1.07566 0.384255 0.29516 0.577598 1.01935 0.0554625 0.157457 0.745136 0.989065 0.180145 0.891193 0.571806 0.487125 0.478064 1.04301 0.632331 0.888382 0.267143 0.302936 0.337149 0.36638 0.722495 0.468807 0.70121 0.17678 0.386452 0.656067 0.94094 1.06785 0.721045 0.127668 0.845553 0.403934 0.34929 0.319888 0.493594 0.558725 0.23547 0.415315 0.0766309 0.332126 0.312845 0.137399 0.460236 1.07298 0.108806 0.837353 0.757524 1.01781 0.90264 0.0870732 0.186206 0.055159 0.0913787 0.0405958 0.367829 0.330035 0.0464212 1.09102 1.1706 0.0980953 1.06699 1.04214 0.191246 0.545549 0.54558 0.183757 0.57745 0.296768 1.17784 0.486964 0.5452 0.444581 0.102314 0.336397 0.265848 1.10838 0.730507 0.189685 0.603395 0.599984 0.404636 0.508724 0.314376 0.136023 0.932079 1.14271 0.321488 0.456571 1.09443 0.291691 0.347851 0.356604 0.334291 0.593011 0.347731 0.102439 1.04764 0.581844 0.1171 0.405746 0.576307 1.01141 0.0980032 1.17027 0.239876 1.05906 0.231477 0.491845 0.196763 0.438571 0.53813 0.674866 0.287487 0.458155 0.637303 0.298273 0.267499 0.092192 0.210146 1.14687 0.529465 0.125461 0.123834 0.0893806 0.962441 0.142505 0.0905895 0.655399 0.368594 0.722834 0.556851 0.65536 1.05038 0.450664 1.05363 0.0617641 0.118748 0.171584 0.560094 0.376421 1.03565 0.674595 0.535344 0.278723 0.557674 0.55802 0.311035 0.471478 0.777261 0.292247 0.121968 0.176348 0.0992829 0.275273 0.077797 0.0361922 0.342794 0.476512 0.605655 0.476372 0.0537915 0.445284 0.0482021 0.568863 0.258222 0.0467175 0.0567329 0.18419 1.109 0.0970314 0.0851189 0.482151 0.0552636 0.604992 0.0388683 0.492005 0.238832 0.5727 0.355728 0.454484 0.617572 0.437087 0.627635 0.095844 0.20866 0.461171 0.0472957 0.127458 0.400475 0.261509 0.225866 0.183899 0.510517 0.0833346 0.0426471 0.0765546 0.0662655 0.0406511 0.0534884 0.319455 0.504847 0.383545 0.185618 0.374701 0.401838 0.846073 0.656767 0.755054 0.588472 0.515243 0.401995 0.732532 0.741706 0.933955 0.781231 0.560373 0.75229 0.731609 0.511345 0.800585 0.72739 0.422231 0.498743 0.761535 0.639757 0.622261 0.591779 0.565668 0.464108 0.976185 1.08979 0.922241 0.801266 1.04643 0.920241 1.00674 0.724005 0.807536 0.837757 0.757634 0.575866 0.531322 0.371779 0.577265 0.531073 0.338505 0.445635 0.195374 0.224396 0.100802 0.133109 0.258699 0.157729 0.165515 0.105957 0.112639 1.08891 0.921152 1.27197 1.28348 0.941781 1.14268 0.913562 0.753623 1.00782 0.879709 0.748599 0.834501 0.937319 1.07638 1.05571 0.871648 1.10194 1.03407 0.881755 1.22219 1.19598 0.852188 0.994911 0.491757 0.441874 0.363778 0.440172 0.513408 0.377272 1.14594 1.2086 0.988496 0.807546 0.975026 0.831218 0.18338 0.143543 0.0850657 0.0792823 0.147906 0.068438 0.801617 0.862874 0.642711 0.589688 0.794953 0.665572 1.32432 1.20145 1.13841 1.16791 1.19249 0.992755 0.743623 0.545097 0.528266 0.517981 0.585149 0.324535 0.340829 0.274297 0.371737 0.492914 0.408214 0.444753 0.619586 0.500756 0.696029 0.752019 0.598749 0.624012 0.14256 0.106589 0.145032 0.0784095 0.286285 0.104747 0.697659 0.605895 0.588423 0.522582 0.518726 0.395133 0.261866 0.318585 0.156563 0.201363 0.150335 0.0893031 0.167959 0.207867 0.288999 0.193392 0.339958 0.0841147 0.05919 0.038482 0.131462 0.149341 0.145873 0.227396 0.10793 0.188307 0.247444 0.161884 0.127643 0.690597 0.635428 0.489691 0.538283 0.687855 0.58992 1.32846 1.15145 1.15081 0.836146 0.681325 0.652077 0.633496 0.722533 0.489303 0.602155 0.532425 0.664801 0.525948 0.411632 0.523426 1.24625 1.2341 1.39945 1.28765 1.09908 1.27889 0.39526 0.376475 0.281267 0.285242 0.37452 0.313108 1.00062 1.13441 0.808981 0.85504 1.17728 1.02695 0.245097 0.351576 0.454458 0.307964 0.201451 0.415897 1.11163 1.03109 0.930925 0.984922 1.09976 0.966701 0.262118 0.201138 0.132027 0.107393 0.171487 0.0619813 0.200825 0.290251 0.240045 0.12808 0.118536 0.281 0.342122 0.26706 0.182963 0.240921 0.396267 0.182034 0.0523706 0.0492721 0.0282579 0.120152 0.11489 0.0861886 0.914063 0.757371 0.809731 0.836441 0.810261 0.687271 0.168256 0.125768 0.236115 0.182602 0.0726758 0.136132 0.840128 0.909585 0.88752 0.63512 0.753343 0.677746 0.311696 0.553188 0.361388 0.30329 0.442205 0.520886 0.394846 0.319771 0.439913 0.567253 0.496594 0.49022 0.268312 0.357378 0.423006 0.279058 0.231874 0.341627 0.104476 0.0503718 0.0583883 0.112451 0.094359 0.0576447 1.13178 1.00018 0.991841 1.13134 1.05031 0.964252 0.99454 1.07229 0.894494 0.664082 0.739837 0.67016 0.993429 0.789832 0.96447 0.77495 0.632418 0.632442 1.07739 0.859317 0.785438 0.760389 0.85677 0.570556 0.282081 0.343714 0.102043 0.165533 0.172168 0.845572 0.486491 0.694415 0.816845 0.588221 0.44746 0.169993 0.172322 0.159664 0.319435 0.318389 0.263758 0.179051 0.294476 1.10431 0.928867 1.00715 0.941907 0.823941 1.20535 1.0939 1.03239 0.929651 0.711054 0.491054 0.896429 0.770931 0.844265 0.743756 0.62111 0.786617 1.01241 0.571187 0.778646 0.794342 0.506918 0.46447 0.268492 0.127604 0.0600056 0.0948254 1.38057 1.15179 1.18772 1.27412 1.23079 1.01645 0.0590184 0.0610278 0.118747 0.0373185 0.0875354 0.0228235 0.364628 0.182928 0.262649 0.417068 0.367703 0.203032 0.6702 0.692696 0.488455 0.437323 0.685565 0.416136 0.559726 0.379207 0.388018 0.623997 0.517514 0.56025 0.747755 0.887833 0.371127 0.742889 0.14731 0.177007 0.079286 0.0735869 0.183891 0.131633 0.109968 0.164942 0.663369 0.605315 0.499298 0.573638 0.680239 0.507509 1.0691 0.961799 1.01852 0.740296 0.850298 0.106918 0.0520662 0.0464564 0.0164458 0.0359079 0.0340277 0.164358 0.135762 0.180502 0.245558 0.223797 0.381874 0.191379 0.32034 0.238691 1.0157 0.830716 0.662055 0.844021 0.248876 0.12981 0.174055 0.295508 0.204603 0.14836 0.523144 0.424391 0.365345 0.469118 0.348105 0.146693 0.13685 0.102158 0.177675 0.213216 0.152745 0.329485 0.231375 0.0381704 0.397578 0.62229 0.0724893 0.136868 0.180891 0.136378 0.0220601 0.110061 0.607199 0.512463 0.545324 1.00553 0.979982 0.951717 0.772189 0.862944 0.0823584 0.198638 0.0723021 0.31348 0.427422 0.238364 0.0773183 0.134953 0.0738432 1.18864 1.04122 1.07304 1.10351 1.04546 1.20782 1.14847 0.969071 1.09968 0.566273 0.61718 0.383941 0.599622 0.45004 0.338276 0.341733 0.318497 0.22359 0.255008 0.239938 0.817393 0.57923 0.599979 0.558998 0.226863 0.193853 0.266108 0.177165 0.191385 0.797686 1.03367 1.03442 0.0770253 0.0734017 0.134083 0.0466405 0.0251768 0.0520123 0.620899 0.477375 0.478002 0.538469 0.333775 0.133469 0.090269 0.0908694 0.134911 0.0855755 0.880192 0.902879 1.12082 1.08806 0.81035 1.02472 0.883657 0.833295 0.944348 0.759182 0.63139 0.729321 0.106955 0.198476 0.0142929 0.200768 0.824792 0.768608 0.716112 0.526362 0.235779 0.323145 0.245353 0.289153 0.316185 0.202327 0.19384 0.228108 0.271998 0.774878 0.701302 1.0959 0.862419 0.482862 0.790093 0.102965 0.097891 0.193313 0.686705 0.620908 0.516035 0.479266 0.432246 0.522211 0.47224 0.367689 0.293956 0.185155 0.244917 0.273382 0.0986151 0.0550296 0.0853786 0.0311503 0.0372801 0.550954 0.492338 0.337319 0.338228 0.577088 0.29024 0.391928 0.321046 1.15835 1.08124 0.1759 0.281068 0.197528 0.111459 0.1729 0.218451 0.0596675 0.0116375 0.0693769 0.0939224 0.0419223 0.193142 0.200495 0.247115 1.079 0.747447 0.98025 0.602941 0.738852 0.582467 0.44121 0.571767 0.558842 0.546453 0.433524 0.416069 0.460617 0.493854 0.395656 0.446104 0.4095 0.366801 0.287979 0.368778 0.281519 0.195231 0.248629 0.168912 0.0739062 0.786524 0.762449 0.986953 1.02071 0.994377 0.340274 0.383621 0.365846 0.263135 0.295333 1.32303 1.20705 1.16033 1.19621 1.22792 1.05781 0.116716 0.139518 0.82993 0.747895 0.503865 0.723024 0.489471 0.412391 0.284869 0.257815 0.0993496 0.378861 0.510974 0.296582 0.293124 0.483812 0.68652 0.838434 0.614483 0.590141 0.650889 0.594064 0.359225 1.05405 0.827546 1.00924 0.80625 0.772945 0.753226 0.878228 0.550444 0.602447 0.510173 0.463889 0.459848 0.512994 0.0957651 0.125877 0.408152 0.710968 0.777699 0.572691 0.446263 0.800406 0.0915076 0.234353 1.1065 0.856444 0.789037 0.791381 0.510224 0.350544 0.288397 1.07027 0.831617 1.00194 0.968581 0.738702 0.697925 0.500701 0.405249 1.13944 1.14361 1.00347 1.01631 1.20738 0.999542 0.913042 1.0618 0.995396 0.702994 0.749609 0.87724 0.623057 0.624749 0.375054 0.394088 0.326202 0.237918 0.183215 0.152033 0.143758 0.169157 0.116253 0.115657 0.349674 0.47619 0.33643 0.128089 0.110427 1.27834 1.28023 1.19391 0.318439 0.401055 0.230625 0.358445 0.573135 0.448007 1.28372 1.11184 1.05392 0.85258 0.786888 1.02545 1.06504 0.794292 1.28555 1.12437 1.2843 1.20641 1.10049 1.03628 0.18198 0.607952 0.373146 0.646968 0.476844 0.169502 0.236427 0.215279 0.119845 0.171836 1.11597 1.25641 0.908493 1.07587 0.67977 0.50359 0.49735 0.379209 0.773942 0.835482 0.753156 0.287017 0.331593 0.229166 0.700558 0.761647 0.508941 0.985844 0.773565 0.0417175 0.572116 0.294811 0.28178 0.304989 0.172469 0.186774 0.183024 0.196736 0.0735614 0.0538666 0.0576552 0.075647 0.053634 0.0540144 0.0734508 1.0129 0.646078 0.950411 1.18058 1.01948 0.915604 0.981419 0.573264 0.408436 0.470305 0.440326 0.412658 0.317054 0.473781 0.967158 0.651074 0.68855 1.0871 0.766063 1.01966 0.778672 0.787706 1.03868 1.0492 0.780313 0.0523457 0.0624965 0.05659 0.0615002 0.828673 0.557019 0.716585 0.860785 0.630224 0.787788 0.67335 0.45872 1.01257 0.789824 0.845363 0.958824 0.538945 0.388626 0.42871 0.507738 0.25852 0.179491 0.336767 1.34409 1.01377 1.17194 1.19122 0.169286 1.09619 0.922644 1.14334 1.07414 0.626128 0.750078 0.793814 0.0793565 0.0935997 0.0717974 0.0508936 0.0585856 1.14812 0.951545 1.08545 0.952093 0.847762 0.0953982 1.02985 0.99415 0.922636 0.900036 0.763494 0.856397 1.08828 0.808731 0.883007 1.16282 0.845031 0.818909 0.941463 1.07433 0.749897 0.994801 0.190814 0.185156 0.317742 0.32468 1.18158 1.05321 0.219171 0.320279 0.646305 0.606298 0.651095 0.481598 0.454295 0.30563 0.0686064 0.266147 0.125576 0.301253 0.11892 0.186103 0.200045 0.442118 0.690817 0.793509 0.711001 0.920639 1.10452 0.943731 0.825435 1.02475 1.03124 0.661828 0.763422 0.722906 0.382385 0.675793 1.04018 0.228114 0.228425 0.700614 0.72495 0.945161 0.664368 0.55951 0.685401 0.739999 0.35054 0.926171 1.03333 0.754675 0.706844 0.620196 0.50663 0.442252 0.82901 0.494222 1.29611 1.10751 1.29667 1.30322 1.16771 1.23349 1.10829 1.07246 1.06164 0.279044 0.343204 0.20536 0.208956 0.177764 0.304203 0.167335 0.414142 0.968751 0.999631 0.818499 0.875771 0.804605 0.583834 0.638526 0.461971 0.938702 0.575118 0.600314 0.320231 0.600871 0.479759 0.497839 0.457092 0.459721 0.811808 0.765071 0.726008 0.874502 0.743231 1.11209 0.750128 0.426171 0.533291 0.310472 0.302575 0.532262 0.358849 0.700825 0.499073 0.451966 0.0659738 0.0718444 0.667028 0.427058 0.371336 0.413824 0.293905 0.423048 0.437879 1.02792 1.12653 0.723542 0.726473 0.524524 0.476496 0.701007 0.698101 0.47898 0.324613 0.312977 0.305717 0.207629 0.20137 0.195959 0.669719 0.694603 0.0847329 0.133891 0.0741734 0.122835 0.997271 0.243969 0.339859 0.215754 0.297527 0.962257 1.14474 0.958634 0.803138 0.870041 0.328858 0.150535 0.520494 0.194327 0.569545 0.747961 0.989765 0.752598 0.987716 0.810132 0.559753 0.43288 0.702367 0.399742 0.37905 0.362739 0.242584 0.178595 0.254789 0.137472 0.294209 1.05735 0.790105 1.03918 0.489776 0.546361 0.546362 0.42415 0.462976 0.841368 0.805847 0.819061 0.242631 0.308437 0.344444 0.25645 0.765479 0.793963 0.61608 0.784537 0.562757 0.116869 0.121413 0.103928 0.0696973 0.221175 0.226315 0.132301 0.570994 1.0052 1.04879 0.525534 0.440346 0.642884 0.496226 0.703448 0.685396 0.511252 0.198188 0.248307 0.270984 0.107716 0.0988454 0.146939 0.883798 0.771348 0.90805 0.902626 0.945836 0.288518 0.256596 0.346763 0.723663 1.25856 1.17075 1.16507 0.972409 0.895407 0.787471 1.03054 0.72805 0.475354 0.813923 0.676924 0.566116 0.350248 0.411093 0.306232 0.272231 0.392715 0.317933 0.658092 0.537001 0.689597 0.793278 0.631591 0.666897 0.589175 0.694278 0.520238 0.591605 0.0498197 0.0504139 0.0680876 0.0988427 0.832309 0.917087 0.865388 0.625419 0.678567 0.678502 0.711436 0.459837 1.07673 1.22282 1.04538 0.611465 0.253212 0.29798 0.275442 0.172286 0.180186 0.212118 0.122946 0.147601 0.199985 0.495235 0.338678 0.395854 0.519493 0.456745 0.352188 0.767306 0.88154 0.76011 0.545332 0.699571 1.03466 0.886179 0.971899 0.96766 0.794057 0.446457 0.441667 0.430056 0.641029 0.54599 0.432291 0.195265 0.303178 0.492316 0.318362 0.506915 0.560118 0.538548 0.31522 0.459081 0.531614 0.452154 0.356058 0.56066 0.902318 0.721845 0.748388 0.808316 0.778345 1.23746 1.26217 1.13079 0.996921 0.670507 0.594973 0.53132 0.694916 1.44347 0.0961431 0.0356177 0.0876637 0.0303363 1.25948 1.06372 0.282353 0.173431 0.139687 0.839254 0.722497 0.475192 0.594613 0.910623 0.847679 0.888848 0.812845 0.679228 0.5571 0.475895 0.397572 0.170693 1.20152 1.05694 1.11627 1.08038 1.01076 0.373612 0.367323 0.413555 0.724863 1.08454 1.14718 0.994987 1.0216 0.4547 0.452717 0.139807 0.0826188 0.165923 0.0613467 0.384847 0.285153 0.470194 0.454691 0.292516 0.29275 0.883806 0.836778 0.092159 0.0734036 0.0519674 0.0297541 0.916286 0.543549 0.430052 0.456648 0.446769 0.470185 0.458686 0.505815 0.2618 0.315122 0.499549 0.711658 0.700469 0.369246 0.353509 0.478667 0.510099 0.463895 0.415921 0.330392 0.599506 0.491381 0.741066 0.803634 0.787287 0.481058 0.558623 0.0449192 0.134932 0.147162 1.29609 1.28859 1.10347 1.16832 1.30064 0.269266 1.29065 0.656672 0.51351 0.600022 0.652157 0.318661 0.481521 0.382019 0.572349 0.459107 0.471209 1.0702 0.345009 0.362139 0.115058 0.349578 0.398328 0.270575 0.164555 0.253271 0.697813 0.465973 0.254406 0.365003 0.317706 0.382364 0.0376882 0.412232 0.230641 0.396222 0.40712 0.346994 0.833812 0.39572 0.260118 0.511309 0.191746 0.090562 0.57814 0.174709 0.334219 0.687718 0.550667 0.441586 0.184846 0.0834154 0.19301 0.127217 0.0788817 0.246624 0.205266 1.04289 0.780277 0.786513 0.792084 0.771455 0.24464 0.756519 0.771418 0.303223 0.446837 0.29494 1.36391 1.25676 1.24592 1.10612 0.433795 0.899471 0.323622 0.203131 0.215017 0.752812 0.680697 0.596322 0.149706 0.550376 0.573702 0.8089 0.569884 0.485033 0.792993 0.44472 0.337222 0.28806 0.0639488 0.0498766 0.500172 0.844236 0.613099 0.670687 1.09172 0.59638 0.604062 0.269544 0.341132 0.215875 0.26876 0.236072 0.42741 0.112202 0.677935 0.410808 1.04065 0.783114 0.2284 0.228743 0.0860967 0.880655 0.925548 0.738003 0.0788472 0.235569 0.150039 1.19376 1.05229 0.629175 0.247551 0.245484 0.323284 0.284398 0.423235 0.88482 0.781177 0.176255 1.01739 1.16321 0.867709 0.322202 0.22913 0.740999 0.730327 0.88565 0.723331 0.738009 0.826482 0.221544 1.00415 0.838194 1.2033 0.15152 0.195561 0.0590523 0.0697732 0.618276 0.0570101 0.278897 0.35447 0.35087 0.63141 0.820238 0.861319 0.501796 0.170036 0.105625 0.0880436 0.626703 0.358527 0.156632 0.0508542 0.0872178 0.0535198 0.273241 0.112785 0.450377 0.271219 0.316182 0.351252 0.260034 0.39834 0.49163 0.463594 0.383748 0.45668 0.195091 0.935329 0.568054 0.529304 0.550135 0.759443 0.743068 0.925723 0.727645 0.741462 0.532579 0.496587 0.416701 0.401871 0.401494 0.413288 0.314905 0.447006 0.296712 0.438534 0.380727 0.253473 0.479881 0.299074 0.353492 0.365827 0.361183 0.305717 0.367556 0.543122 0.643285 0.0576692 0.0889884 0.825997 0.796411 0.907259 0.870615 0.445681 0.344036 0.581747 0.778542 0.865486 0.5633 0.741518 0.462073 0.094811 0.0817989 0.0441924 0.79861 0.761464 0.579577 0.51106 0.91582 0.746456 0.651145 0.686246 0.0482158 1.05963 1.11024 0.858186 0.466638 0.693947 0.0753526 0.0534927 0.573245 0.276451 0.239417 0.0188197 0.024268 0.115825 0.067116 0.0326996 0.474528 0.711758 1.02995 0.453054 0.244412 0.282826 0.0788056 0.0834926 1.07109 0.74252 0.740917 0.110724 0.18647 0.128422 0.310581 0.137584 0.542506 0.559097 0.658975 0.905206 0.740929 0.73864 0.671587 0.536968 0.701547 0.500928 0.69192 0.472445 0.187745 0.221916 0.553214 1.25544 1.39013 1.25204 0.226953 0.354214 0.891148 0.83115 1.24217 0.848553 0.917481 0.120891 0.070075 0.0582161 0.0837202 0.0474906 0.0506713 0.028271 0.835835 1.26655 0.0906101 0.327254 0.623113 0.548179 0.124463 1.27105 1.14874 0.0444468 0.00933427 0.390118 1.00501 0.755771 1.00023 0.952196 0.774354 1.07223 1.0355 0.817123 0.903922 0.56041 0.810599 1.4251 1.27768 1.1975 0.639171 0.402212 0.213401 0.384031 0.15467 0.165381 1.02618 0.0255186 0.177224 0.766324 0.748052 0.797715 0.65964 0.780491 0.495855 0.413445 0.858411 0.326669 0.961333 0.081737 0.59276 0.541152 0.209495 0.148364 0.252609 0.452226 0.0700215 0.652919 0.661146 0.81018 0.39366 0.566163 0.630941 0.438807 0.528851 0.900827 0.714872 0.988577 0.738472 0.779633 0.208848 0.688063 0.479601 0.508602 0.674728 0.586277 0.714661 0.695768 0.686539 0.27984 0.817445 1.10106 1.09942 0.932437 0.788774 0.525711 0.187718 0.59202 0.53521 0.931283 0.773825 0.722787 0.887488 0.459512 0.526056 0.392612 0.40354 1.07822 0.962166 0.080314 0.763752 0.304988 0.308994 0.743653 0.224666 0.112459 1.23444 0.802027 0.962551 0.061643 0.0661495 0.484342 0.0518136 0.0762473 1.43592 0.235413 1.04681 0.14036 0.824552 0.83288 0.24527 0.411801 0.201566 0.515726 0.1454 0.715501 0.76618 0.830435 0.890564 0.912414 0.821665 0.178436 0.970329 0.798571 0.483868 0.575296 1.02326 1.0105 0.592082 0.626976 0.546981 1.08624 0.960277 1.02115 0.632771 0.722533 1.0049 0.655785 0.790511 0.721531 0.508972 0.00987606 0.0710363 0.0751605 0.167146 0.384869 0.506478 0.526897 0.384854 0.350845 0.686136 0.65791 0.0732239 0.0553978 0.042638 0.87815 1.02666 0.613736 0.358016 0.0873323 0.794515 0.772056 1.00565 0.531567 0.779908 0.0555914 0.621652 0.400989 0.124389 0.216232 0.6039 0.725562 0.625482 0.546489 0.781055 0.602678 1.18003 1.08576 0.936262 1.08131 0.0744757 0.284975 0.0914339 0.197815 0.0824662 0.0504761 0.481465 0.101297 0.0599941 0.0357375 0.2328 0.153913 0.751899 0.600684 1.04239 1.03007 0.749628 0.213363 0.690393 0.649521 0.121085 1.00453 1.01502 0.051618 1.08888 1.09595 1.04198 0.29962 0.974454 0.442579 0.254889 0.568633 0.609869 0.134358 0.191976 0.183531 0.181477 0.151841 0.174387 0.32246 0.418666 0.658042 0.142281 0.425775 0.255962 0.55817 0.360405 0.370915 0.7609 0.770671 0.939612 0.977131 1.0122 0.990843 0.312265 1.02389 1.04862 1.1752 1.37351 0.0897637 0.0645327 0.868555 0.824458 0.360602 0.444049 0.384586 0.0459614 0.109969 0.0695396 0.0820242 1.343 0.327387 0.392596 0.351179 0.293407 0.182831 0.229159 0.206887 0.669321 0.59861 0.714172 0.651577 0.780022 0.942368 0.796217 0.973205 0.923131 0.475319 0.0342294 0.0690658 0.0449957 0.0226571 0.955038 0.249043 0.418387 0.386879 0.75314 0.976623 1.0017 0.944216 0.896024 0.612625 0.726186 0.747752 0.826841 0.206618 0.851004 0.902268 0.969245 1.01706 0.275679 0.278801 0.381215 0.702452 0.156254 0.108987 0.106915 0.0839652 0.158725 0.0496875 0.210251 0.32425