# vtk DataFile Version 5.1
vtk output
ASCII

DATASET UNSTRUCTURED_GRID
POINTS 2252 float
-0.559688 -0.519728 0
-0.559687 0.480276 0
0.440317 0.480276 0
0.440317 -0.519729 0
-0.535058 -0.542412 4
0.464947 -0.542412 4
0.464946 0.457592 4
-0.535058 0.457592 4
-0.559688 -0.0197262 0
-0.0596853 0.480276 0
0.440317 -0.0197266 0
-0.0596857 -0.519729 0
-0.0350557 -0.542412 4
0.464946 -0.04241 4
-0.0350558 0.457592 4
-0.535058 -0.0424099 4
0.44666 0.482501 2.0164
0.44732 -0.508713 1.9931
-0.582887 -0.503148 1.9907
-0.538388 0.512062 2.00176
0.214945 -0.542412 4
-0.535058 -0.292411 4
-0.555264 0.462335 3.00599
-0.560774 -0.471593 1.01147
-0.537088 0.529005 0.986898
0.450235 0.468645 1.00723
-0.091752 -0.717091 1.48005
-0.756382 0.0441526 0.486466
-0.767815 0.013047 1.50452
-0.00705395 0.699382 0.507306
0.646709 -0.0651187 0.524383
-0.701935 0.261799 0.248249
-0.285057 -0.542412 4
-0.535058 0.207591 4
0.400498 -0.531561 1.00057
0.456161 0.423977 3.02798
0.425598 -0.553047 2.97653
-0.568155 -0.525782 3.00058
-0.739218 -0.0491092 3.52157
-0.0450438 0.702222 2.53051
-0.00964414 0.708353 1.51777
-0.365321 -0.639827 1.23921
0.196869 -0.684378 1.75579
-0.741376 -0.23788 0.753347
-0.782577 -0.0126648 2.48557
-0.0542345 -0.739774 2.46906
0.650636 -0.0487071 3.48661
0.639172 -0.0506778 2.48967
-0.0627869 0.666158 3.51975
0.656789 -0.0411492 1.50583
-0.0917595 -0.736896 0.520601
-0.0394031 -0.766938 3.48931
-0.331587 0.627095 2.76283
-0.684838 -0.332745 3.76252
-0.687889 0.229351 3.28145
0.21587 0.612302 2.26987
0.602769 0.248527 1.74793
0.234543 0.604652 3.26852
-0.326595 0.593836 3.73456
0.619383 -0.279889 2.24058
0.591933 0.201394 2.7506
0.576144 -0.284926 1.2642
-0.345257 -0.662248 0.2553
0.171569 -0.69051 0.75724
0.315941 0.398511 0.263497
0.362105 0.249084 1.37421
-0.0596855 -0.0197264 0
-0.556533 0.145024 2.75875
0.350291 -0.316506 0.631851
-0.160056 -0.16741 4
-0.559688 -0.269727 0
-0.309686 0.230275 0
0.190316 0.230275 0
0.126012 -0.512772 3.22934
0.457876 0.0225194 3.1152
-0.568968 0.109134 0.867052
-0.530836 -0.204598 2.24096
0.377888 0.296977 3.16374
-0.565029 -0.00554854 3.13545
-0.168357 -0.490984 0.874175
-0.309686 0.480276 0
-0.714974 -0.27502 2.73995
-0.277115 0.655551 0.721984
0.190315 -0.269728 0
0.214945 0.207591 4
0.349383 -0.304831 1.62848
-0.449274 0.347964 0.401965
-0.231705 0.455407 1.25634
-0.407543 -0.381535 3.62471
-0.6025 -0.168356 0.901095
-0.164787 -0.509026 1.86705
0.367899 -0.407657 0.272658
0.475677 0.14019 2.89506
0.449985 -0.21952 0.535931
-0.309687 -0.519729 0
-0.367013 -0.463558 3.40976
0.5207 -0.00052202 3.76486
0.464946 -0.292411 4
-0.547531 0.106649 3.6408
0.351622 -0.363364 0.849256
-0.00689223 0.521949 0.234001
-0.401611 -0.398426 0.388795
0.470995 -0.0660473 0.241806
-0.285057 0.457592 4
-0.526651 -0.275328 3.09256
-0.439875 -0.352414 2.59812
-0.308777 0.456886 2.6188
-0.135245 0.454194 3.12236
-0.515667 0.255794 2.87244
-0.707275 0.295004 2.2497
0.12585 0.440028 3.64285
-0.0843035 0.529061 0.894275
-0.559688 0.230275 0
0.30176 -0.375999 2.71161
0.193548 0.476362 3.40346
-0.497055 0.269687 1.73199
0.504594 0.0436889 1.35422
0.596098 0.249278 3.73177
0.605958 -0.335034 3.23972
0.510331 -0.0875769 2.63355
0.250983 -0.693746 3.73746
0.157841 -0.529128 0.616972
-0.16973 -0.548655 1.63377
-0.677149 0.29003 1.25178
-0.511023 -0.277148 1.23163
-0.127841 0.472241 2.13813
0.0899449 -0.292411 4
-0.338367 -0.674838 2.22871
-0.595515 -0.114706 3.35999
-0.0516484 -0.579562 0.360849
0.451749 0.158819 1.05104
0.119322 -0.538004 1.90293
-0.533455 -0.270025 0.53658
-0.397921 0.439927 1.15772
-0.639414 0.00932091 2.65785
0.0718182 -0.5523 0.903346
-0.286969 0.446301 0.5538
0.443727 -0.265937 3.46867
0.221037 -0.452272 2.23858
0.351369 0.232459 2.37253
-0.625726 -0.0447543 2.33634
0.209791 0.625745 1.24748
0.202881 0.474618 2.41819
-0.023902 0.507372 1.80048
0.455224 0.114871 1.89434
-0.559373 0.243452 1.98843
-0.456976 -0.409562 0.856133
-0.157265 0.497961 3.3629
-0.428503 0.395723 0.801946
-0.365346 0.33241 3.39522
0.356292 -0.442051 3.20841
-0.285057 0.0825906 4
0.210887 -0.693866 2.73056
-0.321884 -0.685975 3.25851
-0.0549264 0.553372 2.36738
0.133414 0.450998 0.967706
0.346956 0.249549 3.38277
0.204215 -0.445546 0.374063
0.640991 0.216643 0.752717
0.39826 0.25742 3.59783
0.444697 -0.0362851 1.11491
0.478869 0.21265 1.59892
0.494453 -0.115412 3.24311
-0.277014 0.662494 1.78284
-0.444761 -0.430249 2.83997
-0.52954 0.183988 0.646659
0.288349 0.411819 2.86781
-0.425744 0.386638 3.15767
-0.297547 0.451774 3.60099
-0.402792 0.380318 2.44431
-0.706625 -0.234346 1.74005
-0.0289114 0.550758 2.66487
-0.139707 -0.565354 0.630195
-0.572401 -0.0530552 1.98578
0.343276 0.366704 2.16046
0.309583 -0.451287 1.15812
0.0171563 -0.601156 3.3451
0.376674 -0.333883 1.85275
-0.271205 -0.584171 3.09565
0.0363466 -0.545207 1.36192
-0.11492 0.555371 1.36177
0.202926 0.362173 2.67005
-0.0957872 -0.539439 3.76074
-0.26802 -0.228061 0
0.405681 0.252165 0.59743
0.0661925 -0.514763 2.36872
-0.48164 0.328225 2.2899
-0.319867 -0.517094 2.39394
0.144498 0.505724 1.52588
-0.109501 -0.520777 1.10768
-0.557267 0.260146 1.44277
-0.58864 0.110142 1.12665
0.0691115 -0.0215767 4
0.456857 0.15581 2.49393
-0.0567375 -0.555153 2.89291
0.0375288 0.530909 0.654687
-0.584863 -0.064888 0.237566
0.438963 -0.298998 2.9747
0.133525 0.51599 2.0957
0.464447 -0.0145357 0.807478
-0.496935 -0.279576 1.53459
-0.36495 0.370377 1.50527
0.320118 -0.321567 2.4833
-0.232918 -0.536516 2.62195
0.207807 -0.417934 1.31671
-0.595116 0.0246542 1.71124
0.154527 -0.549599 1.60114
-0.281143 0.483474 2.03332
0.488878 -0.0741301 1.63638
-0.259291 0.527379 1.61772
-0.484894 -0.405488 2.14524
-0.0575966 0.201785 4
0.214945 0.457592 4
0.501149 -0.0761138 2.15283
0.142037 0.503724 3.11246
-0.244032 0.490357 2.90925
0.30057 -0.456902 3.66095
0.354171 0.247476 0.374701
0.165495 0.444618 1.8663
-0.465745 -0.416316 1.8437
-0.127262 -0.518969 2.08329
0.436664 0.120732 2.12567
-0.104764 0.0580275 1.93178
0.169219 0.0111828 0.63873
0.164688 -0.0315965 3.62787
-0.0707179 -0.0397298 2.7109
-0.0752842 0.568698 0.421442
-0.470986 -0.425073 3.76978
-0.0252419 0.165821 1.38138
-0.594127 -0.269349 0.662514
0.523051 0.0571996 0.449261
0.0645926 -0.270242 2.56988
-0.0423244 -0.287089 0
0.178083 0.160781 3.54457
-0.100564 -0.118493 3.17003
0.450693 -0.118272 2.86425
0.461002 -0.280731 2.38786
0.136089 -0.593444 3.81808
0.0850548 -0.249758 0.722007
0.0193924 0.276327 0.443736
0.21247 0.160439 0.916585
-0.192327 -0.0154444 2.32693
-0.242268 0.159361 0.970373
0.056594 -0.153007 1.10935
-0.153421 0.51943 3.79234
0.14717 -0.589586 2.87607
-0.0899145 0.0359939 3.77607
-0.154579 0.341171 0.700767
0.00396888 0.520949 1.1603
0.282199 -0.156077 1.29824
-0.288853 0.00110709 0
-0.171761 -0.289622 2.72894
-0.262422 -0.0449877 1.64815
0.168529 0.399632 3.78041
-0.594901 -0.229297 3.5449
0.119327 -0.0986736 0.301717
-0.275416 0.145533 3.02728
-0.615072 0.158267 0.525261
0.234786 0.0149606 2.74733
-0.234432 0.193849 2.74366
-0.263883 -0.129818 2.90523
-0.384548 0.0901099 2.60929
-0.633025 0.0144857 1.34174
0.188547 -0.0111905 3.25058
0.132231 -0.00409523 2.43874
-0.23594 -0.504417 3.82601
0.269344 0.0119884 4
0.19217 0.0919601 1.74271
0.0423363 -0.434656 2.71471
-0.249618 -0.339797 3.13198
-0.482538 0.189396 3.75396
-0.0237897 0.0984997 1.1057
-0.438674 -0.448055 0.230574
-0.0281558 -0.215241 1.40215
-0.568182 0.203039 3.40487
-0.0460807 0.268235 2.44621
-0.0596854 0.230275 0
0.04929 -0.337679 1.74487
-0.283306 -0.174743 1.03689
0.0704898 0.272218 3.24511
0.113716 -0.353859 3.74569
-0.309152 0.0448676 1.28805
0.024899 -0.294416 3.39479
-0.0248038 0.325826 3.52999
-0.305684 -0.462566 1.66654
0.28341 0.388185 1.61835
-0.112183 -0.233073 1.8982
-0.20069 -0.253418 2.48254
-0.486289 0.36356 0.231785
-0.314179 -0.0522214 3.28386
-0.449549 0.449321 1.80931
-0.090775 -0.0444615 0.85307
-0.155798 0.252858 1.68917
0.447725 -0.216613 3.76149
-0.0768392 0.0317901 3.43481
0.0701151 0.181276 2.12845
-0.0139655 0.475752 2.90178
0.222552 -0.0117071 1.02341
-0.152864 -0.535993 3.00357
0.288657 0.428229 1.27124
0.341736 -0.078766 3.41911
-0.535595 -0.0529018 3.84657
0.190316 -0.0197265 0
-0.527063 -0.245393 0.180633
-0.342143 0.029998 1.84572
-0.189812 -0.348261 2.24616
-0.119732 -0.015267 0.532801
-0.302302 -0.535578 1.41202
0.223947 0.068779 3.01264
-0.055391 -0.518629 0.184724
-0.427243 -0.0591641 0.612465
-0.0879838 -0.26212 0.22865
0.0118104 0.170685 0.817781
-0.255971 -0.190758 3.72706
-0.139874 -0.277546 0.475826
-0.499371 -0.0333595 1.54429
-0.18555 -0.227277 0.683558
-0.612571 -0.213014 2.88775
-0.00507322 0.211361 2.8258
-0.341359 0.171956 2.12232
-0.192121 0.255632 2.29163
-0.588737 -0.212989 1.92644
-0.394676 -0.0878154 2.48162
0.135343 -0.0631826 1.91981
-0.0698987 0.48956 1.96828
0.0854849 -0.254923 2.9963
-0.169267 0.193109 0.303866
-0.360492 -0.0173655 0.3602
-0.424419 -0.368152 1.44818
-0.345512 -0.225475 2.01345
-0.313365 0.0809452 0.772937
-0.133316 -0.121166 2.12126
0.195346 -0.295905 0.978116
0.240014 -0.112606 1.52656
0.00143506 0.265527 1.81211
-0.00873183 0.0113422 1.577
0.097261 0.270672 1.52771
-0.12499 -0.613605 3.5827
0.0973601 -0.252307 2.3274
0.371026 -0.423481 2.13973
-0.23267 -0.374155 1.25815
0.22838 -0.0325926 2.18303
-0.338413 0.0223639 3.50292
0.270832 -0.263513 2.02443
0.103836 -0.223174 0.456895
-0.185206 -0.248736 1.56647
-0.261545 0.140722 3.64362
0.101751 0.294076 1.19494
-0.179897 0.190627 3.25747
-0.0498712 0.289112 3.78035
-0.175712 -0.194846 3.51129
-0.108901 0.479019 1.04517
0.325335 0.418462 1.91169
-0.156616 -0.0299445 0.237783
0.0701048 0.276474 3.01151
0.00198649 -0.00920945 2.95145
0.0351754 0.00563894 3.70414
0.132109 -0.191236 3.68581
0.0090378 -0.167506 3.75972
-0.113243 -0.0925723 3.64545
-0.00122435 -0.1186 3.56817
-0.033871 -0.284081 3.62456
-0.156742 -0.432467 2.16549
-0.239426 -0.371559 2.05162
-0.272048 -0.296744 2.13103
-0.165321 -0.227588 2.18487
-0.118144 -0.325603 2.11819
-0.237436 -0.177755 2.06782
-0.126142 -0.147008 0.499355
-0.253839 -0.147 0.41741
[...]
POINT_DATA 2252
SCALARS scalars float 1
LOOKUP_TABLE default
1.47064 1.44356 1.35836 1.3871 1.469 1.42047 1.35945 1.41008 1.05987 0.982091 0.940524 1.02147 1.043 0.965878 0.958234 1.03593 0.0584823 0.0538399 0.0834667 0.0402773 1.1414 1.16857 1.05595 1.06122 1.02976 0.95078 0.630632 1.36923 0.57876 1.29675 1.27863 1.42302 1.17171 1.1317 1.03635 0.925439 0.927414 1.02804 1.3556 0.582149 0.533081 0.876612 0.354848 1.26875 0.585562 0.507105 1.23605 0.470496 1.29501 0.563435 1.37132 1.34811 0.841341 1.44826 1.21874 0.306164 0.27167 1.13625 1.37112 0.25058 0.707394 0.788738 1.43712 1.235 1.04236 0.440544 0.0628609 0.63404 0.8885 0.408363 1.18028 0.737504 0.651569 0.809477 0.694819 0.833565 0.207106 0.805777 0.848811 0.829318 1.1288 0.804345 1.17718 0.681171 0.652352 0.340029 1.02448 0.5286 1.02991 0.929682 0.165226 1.09825 0.668911 0.995436 1.16323 0.98796 1.05085 1.10695 1.04781 0.87642 1.05059 1.04262 1.02117 1.09694 0.844571 0.481935 0.544896 0.780919 0.74824 0.291524 0.940198 0.775223 1.16344 0.491101 0.980847 0.207989 0.515517 1.32785 1.11824 0.470768 1.41038 1.03554 0.376118 0.80965 0.681435 0.131477 0.583447 0.239054 1.04373 1.1304 0.676439 0.150961 1.03968 0.698205 0.617708 0.923658 0.953916 0.94554 0.109491 0.275924 0.322771 0.720848 0.365819 0.156521 0.100835 0.0815389 0.967924 0.961075 0.913033 0.909003 0.877565 0.573916 0.737104 1.19931 0.338203 0.689665 0.816983 0.972938 1.17565 0.965176 0.627872 0.348838 0.81913 0.277859 0.683387 0.952138 0.650388 0.934191 1.07768 0.397189 0.336697 0.594249 1.04105 0.0750856 0.181267 0.759117 0.996399 0.181113 0.895635 0.576338 0.491644 0.471629 1.0399 0.646028 0.912541 0.240513 0.304774 0.322716 0.381833 0.722516 0.499164 0.731647 0.17328 0.389104 0.636078 0.948492 1.0866 0.704903 0.131111 0.855111 0.414654 0.365066 0.304825 0.472744 0.568163 0.261976 0.443441 0.0549089 0.338707 0.344345 0.126085 0.453122 1.0645 0.139675 0.839391 0.773013 1.02804 0.889311 0.0722586 0.219159 0.0419623 0.108932 0.0516132 0.364857 0.330788 0.0651522 1.0944 1.19237 0.110797 1.09539 1.04956 0.154455 0.555012 0.527142 0.19663 0.563502 0.276161 1.1819 0.496026 0.534827 0.440304 0.100155 0.351335 0.256028 1.10829 0.701636 0.191087 0.615368 0.603495 0.394952 0.518484 0.302469 0.156891 0.92315 1.1636 0.331192 0.480355 1.11959 0.285426 0.364138 0.357866 0.353589 0.619496 0.341993 0.107625 1.05475 0.57757 0.103219 0.380111 0.590833 1.01727 0.0886268 1.18875 0.259529 1.07254 0.256808 0.483969 0.214667 0.447942 0.540076 0.688944 0.302174 0.463695 0.641665 0.317347 0.271015 0.107721 0.171151 1.15543 0.538681 0.15502 0.140994 0.101922 0.967286 0.155999 0.121868 0.668352 0.360601 0.702587 0.546288 0.638158 1.05085 0.440757 1.07918 0.0899615 0.0988004 0.172124 0.587373 0.363232 1.03573 0.698852 0.539638 0.269725 0.568581 0.570536 0.33282 0.489904 0.782155 0.310378 0.130991 0.200106 0.12529 0.266993 0.0864206 0.0321395 0.322375 0.468946 0.623727 0.497952 0.0580255 0.467535 0.047989 0.572073 0.250687 0.0392102 0.0571806 0.181009 1.12422 0.0847837 0.0949245 0.512305 0.0611407 0.615891 0.0372064 0.502144 0.25361 0.576949 0.353706 0.466694 0.616317 0.449629 0.629999 0.0823416 0.234469 0.470628 0.0482621 0.115131 0.415681 0.275019 0.234205 0.184221 0.517128 0.062071 0.036126 0.0627053 0.0486507 0.0284666 0.0528401 0.330441 0.517855 0.395666 0.199218 0.385128 0.424367 0.863664 0.678046 0.767165 0.595992 0.519612 0.411247 0.720419 0.732721 0.930961 0.776561 0.547323 0.750525 0.746473 0.516336 0.819045 0.749233 0.43477 0.518452 0.767977 0.651408 0.626424 0.590557 0.571374 0.46398 1.0023 1.10622 0.941085 0.822664 1.06396 0.930814 1.01151 0.723604 0.803387 0.848565 0.769894 0.574601 0.514825 0.365677 0.550469 0.512825 0.326584 0.434412 0.199204 0.236431 0.104637 0.120779 0.267427 0.159753 0.148399 0.0987415 0.106391 1.09036 0.920082 1.27143 1.29425 0.944946 1.14161 0.945661 0.781425 1.0321 0.900182 0.763739 0.841795 0.941412 1.08442 1.07371 0.877204 1.10877 1.03393 0.889208 1.23252 1.17791 0.837075 0.990941 0.50602 0.460051 0.371098 0.461441 0.539784 0.389297 1.17341 1.23723 1.01348 0.825918 0.989526 0.84933 0.192021 0.158536 0.0997839 0.0891917 0.157532 0.0789644 0.798583 0.886533 0.640439 0.577991 0.805065 0.673098 1.32066 1.19859 1.13706 1.16218 1.1669 0.978175 0.767534 0.570206 0.552799 0.544262 0.604069 0.338403 0.328773 0.265911 0.361993 0.491192 0.407294 0.439354 0.616308 0.500969 0.696581 0.739876 0.58148 0.61461 0.138499 0.102931 0.15757 0.0716904 0.276484 0.100306 0.723242 0.619115 0.61219 0.543377 0.539679 0.410657 0.249625 0.29648 0.151973 0.197095 0.140597 0.0536787 0.155869 0.17823 0.258727 0.171 0.321196 0.0852551 0.0721947 0.0651058 0.155567 0.165725 0.16363 0.228167 0.124879 0.208503 0.262482 0.171422 0.158791 0.668962 0.623076 0.483151 0.53434 0.676282 0.591209 1.32815 1.1554 1.1474 0.851029 0.691085 0.659263 0.636443 0.73481 0.489391 0.588125 0.527887 0.662212 0.525524 0.402754 0.52513 1.24861 1.23872 1.4127 1.286 1.09479 1.29271 0.419722 0.396481 0.293032 0.307252 0.402848 0.327508 0.986876 1.13226 0.797862 0.846676 1.16556 1.01812 0.216586 0.332735 0.438727 0.289019 0.177741 0.407905 1.13383 1.06303 0.952555 1.00599 1.12711 0.988516 0.283368 0.224968 0.154188 0.136302 0.191189 0.0796046 0.191335 0.264047 0.236466 0.145057 0.102609 0.288458 0.337769 0.269934 0.176054 0.247387 0.398902 0.190202 0.0529887 0.0358505 0.031218 0.120858 0.113565 0.0772804 0.897312 0.7426 0.788569 0.809937 0.781159 0.660699 0.20999 0.159602 0.270875 0.221954 0.0976583 0.169471 0.855248 0.904409 0.891681 0.641327 0.749287 0.668348 0.321951 0.563879 0.372413 0.312675 0.447515 0.531157 0.384066 0.304952 0.42177 0.549156 0.488347 0.481162 0.246568 0.340272 0.412045 0.254719 0.199035 0.316891 0.0861874 0.0571274 0.067308 0.0945704 0.0798036 0.0730377 1.14724 1.01624 0.99908 1.16574 1.08996 0.986981 1.0205 1.10537 0.922231 0.682378 0.757827 0.690571 1.02845 0.808022 0.985718 0.785829 0.64123 0.63359 1.09016 0.871475 0.794382 0.765609 0.865376 0.580067 0.279126 0.336064 0.0971126 0.149142 0.177393 0.833302 0.47565 0.695056 0.814836 0.581684 0.448481 0.183686 0.187523 0.173148 0.336861 0.338395 0.237411 0.139166 0.266643 1.1337 0.948014 1.03055 0.960539 0.839814 1.22911 1.11497 1.05734 0.93733 0.709681 0.487856 0.918081 0.790169 0.87488 0.764375 0.64507 0.792907 1.01339 0.575842 0.788226 0.799141 0.521679 0.478315 0.267366 0.112964 0.0865113 0.0849874 1.40432 1.1737 1.20807 1.29413 1.24931 1.03417 0.0986651 0.0850505 0.136267 0.0544823 0.0919061 0.0386119 0.359461 0.171129 0.268838 0.411004 0.366322 0.190832 0.6931 0.694245 0.502195 0.449995 0.693709 0.416845 0.558023 0.382172 0.38833 0.625414 0.519067 0.578566 0.766198 0.892901 0.387451 0.757699 0.141247 0.169551 0.0743953 0.0611979 0.174068 0.130917 0.125764 0.170959 0.692454 0.637307 0.532511 0.602646 0.703924 0.540023 1.05587 0.943015 1.00491 0.72771 0.834985 0.101136 0.0525526 0.059354 0.0368414 0.0358785 0.0425413 0.149613 0.106521 0.174332 0.22892 0.197713 0.37949 0.195538 0.33741 0.248982 1.02139 0.852155 0.669535 0.849388 0.262913 0.14676 0.185371 0.293962 0.205152 0.148505 0.513585 0.418262 0.359369 0.457149 0.352136 0.160024 0.15591 0.114033 0.199061 0.225406 0.167479 0.333816 0.240211 0.0286827 0.402113 0.632229 0.0723759 0.160218 0.193443 0.147427 0.0257743 0.123694 0.593504 0.494234 0.517466 1.00426 0.982145 0.940266 0.769101 0.861768 0.0970828 0.214032 0.0867318 0.317557 0.427563 0.237361 0.0637294 0.118692 0.0673477 1.20339 1.06247 1.08394 1.1168 1.06641 1.23875 1.15393 0.976187 1.12233 0.584574 0.628114 0.399447 0.610092 0.46197 0.337372 0.34496 0.324362 0.237776 0.260121 0.255652 0.799272 0.56436 0.581659 0.533063 0.236717 0.21433 0.282438 0.186616 0.197791 0.793226 1.02803 1.01974 0.0853266 0.0884165 0.132112 0.0452867 0.0233344 0.0546111 0.602684 0.467929 0.459804 0.516967 0.320226 0.136344 0.0838125 0.0766357 0.13669 0.0824462 0.893542 0.918859 1.14082 1.09653 0.817119 1.03626 0.890209 0.833378 0.945048 0.761943 0.6374 0.740235 0.0990993 0.193053 0.0184699 0.189064 0.839581 0.777476 0.725886 0.53983 0.227437 0.31107 0.242286 0.285148 0.339441 0.212496 0.216111 0.240567 0.278576 0.783316 0.709172 1.10374 0.873597 0.495887 0.799074 0.0929159 0.100548 0.187182 0.696971 0.625864 0.517745 0.481489 0.428948 0.524884 0.48023 0.369732 0.313119 0.175033 0.245004 0.273466 0.0891495 0.0428323 0.0798554 0.02288 0.0273878 0.568287 0.506958 0.355392 0.351917 0.587448 0.300438 0.409968 0.33443 1.18174 1.09678 0.203205 0.314644 0.221167 0.127027 0.206397 0.24692 0.0788242 0.0289799 0.0900521 0.115778 0.0635566 0.204847 0.215496 0.271662 1.07439 0.74114 0.97022 0.584722 0.718218 0.555581 0.409203 0.557615 0.53438 0.539271 0.445572 0.413895 0.44668 0.483593 0.388072 0.456039 0.427505 0.380822 0.30936 0.386183 0.290667 0.188035 0.241474 0.172712 0.0854333 0.794928 0.76758 0.988659 1.03065 0.99723 0.361107 0.404476 0.391415 0.28733 0.318479 1.33192 1.21243 1.1633 1.20005 1.23071 1.05827 0.11245 0.161566 0.833386 0.751692 0.512677 0.728418 0.499752 0.420808 0.293925 0.273735 0.104729 0.394875 0.513596 0.303724 0.306191 0.501205 0.696752 0.849435 0.615506 0.598094 0.662436 0.599613 0.365691 1.06572 0.839621 1.00828 0.80532 0.769438 0.756399 0.880141 0.549666 0.58654 0.496894 0.435928 0.454393 0.49016 0.0978171 0.138328 0.412243 0.712385 0.783398 0.578472 0.446654 0.798997 0.104697 0.242733 1.11073 0.83104 0.776344 0.78325 0.524377 0.36091 0.305592 1.07561 0.847612 1.01257 0.972613 0.750087 0.713104 0.5074 0.411892 1.16326 1.15209 1.00738 1.03515 1.22743 1.00918 0.91937 1.07406 0.995922 0.709125 0.770124 0.888011 0.629046 0.632079 0.389415 0.395793 0.316487 0.240582 0.172523 0.147986 0.156465 0.186122 0.134049 0.128319 0.333853 0.462275 0.318696 0.147862 0.140453 1.29714 1.29921 1.20853 0.324307 0.407553 0.220676 0.359291 0.58203 0.448705 1.28695 1.11888 1.05567 0.852603 0.789389 1.03003 1.06599 0.801761 1.29911 1.14236 1.30957 1.22013 1.10353 1.05078 0.204869 0.629437 0.402435 0.668723 0.48674 0.189602 0.260307 0.228744 0.145007 0.1966 1.1298 1.27053 0.920891 1.081 0.655463 0.483008 0.475325 0.351852 0.780965 0.851319 0.763027 0.299644 0.350077 0.244148 0.718113 0.788064 0.526248 0.986454 0.772904 0.0548171 0.588736 0.297777 0.29423 0.290215 0.162012 0.172747 0.172408 0.185795 0.0653583 0.0822951 0.079928 0.083321 0.0657026 0.0655721 0.0791952 1.00089 0.639393 0.944655 1.19061 1.01014 0.913932 0.993333 0.549883 0.393779 0.455593 0.414879 0.398119 0.327879 0.482312 0.967357 0.64212 0.688313 1.07462 0.754667 1.00717 0.788855 0.804232 1.06199 1.0609 0.799082 0.0519751 0.0833614 0.0657985 0.0839192 0.817168 0.551551 0.713347 0.840733 0.63305 0.77578 0.653817 0.446906 1.01131 0.798163 0.856378 0.973684 0.536226 0.379167 0.421009 0.497853 0.249644 0.174834 0.330199 1.33586 1.0059 1.16941 1.17243 0.188202 1.09108 0.932049 1.14941 1.08666 0.618327 0.735411 0.779085 0.086759 0.113741 0.0746339 0.0552163 0.0725019 1.14021 0.94603 1.07132 0.937439 0.841035 0.114516 1.02051 0.987216 0.90606 0.881252 0.74241 0.862252 1.08264 0.807704 0.886616 1.16533 0.872199 0.856746 0.969594 1.06795 0.744474 0.996007 0.210461 0.194444 0.324003 0.348217 1.19913 1.06893 0.225419 0.310827 0.677954 0.631557 0.681786 0.510825 0.478973 0.291663 0.077588 0.260016 0.109172 0.295787 0.110732 0.190205 0.200889 0.454041 0.69493 0.791596 0.701415 0.923094 1.10902 0.952532 0.830819 1.03818 1.04302 0.668805 0.777835 0.732509 0.393589 0.680956 1.04587 0.252537 0.250497 0.690598 0.707384 0.925592 0.657635 0.549185 0.664568 0.727046 0.348941 0.906103 1.02571 0.734328 0.687738 0.617029 0.498403 0.452483 0.82184 0.482477 1.30356 1.11545 1.30497 1.32568 1.1794 1.22604 1.09644 1.06115 1.09421 0.298177 0.358953 0.195435 0.204708 0.172121 0.297871 0.160759 0.409079 0.99337 1.02413 0.846313 0.901005 0.817064 0.589034 0.652436 0.47053 0.948911 0.57767 0.612147 0.322623 0.618909 0.490869 0.511362 0.479875 0.47401 0.791437 0.760794 0.713632 0.861481 0.750468 1.13581 0.759016 0.438846 0.552804 0.31964 0.310968 0.560959 0.379682 0.680383 0.484668 0.431215 0.0813614 0.0873401 0.677824 0.4221 0.359902 0.423275 0.299746 0.453736 0.461943 1.04519 1.14485 0.740394 0.749835 0.539253 0.498848 0.720028 0.719089 0.4874 0.308191 0.303945 0.298694 0.205892 0.197653 0.202826 0.674695 0.704805 0.0558482 0.102576 0.0621299 0.109567 1.01612 0.210405 0.305187 0.181479 0.316009 0.993224 1.1802 0.986032 0.828824 0.894684 0.33011 0.154725 0.516363 0.18868 0.590207 0.739518 0.98142 0.743984 0.978413 0.829024 0.578234 0.449107 0.720256 0.392441 0.374949 0.377797 0.257097 0.18794 0.261276 0.138513 0.304923 1.06434 0.7975 1.04992 0.50166 0.551797 0.550807 0.423463 0.463389 0.837727 0.806244 0.812292 0.249329 0.321908 0.368086 0.258061 0.749866 0.79138 0.617978 0.790045 0.564806 0.123138 0.125214 0.099591 0.0696167 0.228209 0.237826 0.141779 0.558805 1.00361 1.04223 0.521243 0.444909 0.620735 0.484379 0.681994 0.666188 0.500896 0.22978 0.269604 0.296125 0.131346 0.126277 0.166601 0.861993 0.772443 0.920826 0.922736 0.964101 0.307489 0.273528 0.356834 0.729634 1.28637 1.19228 1.19638 0.956011 0.88774 0.758375 1.01934 0.727372 0.477117 0.816475 0.683774 0.566383 0.350147 0.403559 0.315026 0.26816 0.380689 0.306887 0.679786 0.552199 0.712349 0.815272 0.651658 0.683538 0.59449 0.692607 0.514543 0.597844 0.0639747 0.0527454 0.0446171 0.0868748 0.855427 0.935607 0.895665 0.65363 0.702429 0.703403 0.712345 0.46045 1.08401 1.24581 1.06712 0.622367 0.231404 0.277893 0.256845 0.149886 0.1604 0.191675 0.124383 0.147675 0.200919 0.506651 0.350489 0.408162 0.53127 0.47127 0.379096 0.772477 0.881266 0.772565 0.547241 0.69532 1.01936 0.857899 0.954726 0.972851 0.782766 0.434854 0.438146 0.428796 0.674915 0.570723 0.460204 0.203977 0.303338 0.485656 0.297932 0.489228 0.593377 0.572812 0.334025 0.48915 0.504277 0.466093 0.356601 0.569177 0.910487 0.733129 0.744268 0.803994 0.787937 1.255 1.27065 1.14059 1.00495 0.673821 0.596742 0.534585 0.704892 1.46559 0.080314 0.0200093 0.0623021 0.0153645 1.26403 1.06727 0.264516 0.157164 0.114877 0.817717 0.693476 0.466213 0.590379 0.909914 0.846181 0.892031 0.783705 0.663256 0.564259 0.489607 0.382139 0.157072 1.20809 1.05524 1.1195 1.10152 1.01401 0.358794 0.359914 0.406337 0.73681 1.07441 1.17019 1.01184 1.03885 0.469179 0.470463 0.167147 0.107194 0.190728 0.0790378 0.40882 0.30442 0.476123 0.463558 0.30164 0.305179 0.903596 0.850358 0.129437 0.10083 0.0882199 0.058044 0.92384 0.549663 0.428809 0.464154 0.454556 0.498629 0.489567 0.53437 0.297353 0.338681 0.491049 0.704145 0.696002 0.377868 0.361995 0.495298 0.516689 0.483138 0.407133 0.327951 0.59033 0.475062 0.755135 0.821947 0.800141 0.488135 0.570401 0.0816418 0.147161 0.157303 1.30974 1.30209 1.11717 1.18391 1.32417 0.281594 1.28505 0.656841 0.51276 0.605355 0.643443 0.304025 0.465367 0.357565 0.599854 0.491491 0.494464 1.07557 0.370894 0.367205 0.123164 0.350296 0.375784 0.263431 0.171437 0.266802 0.716587 0.48365 0.259903 0.383099 0.318047 0.385427 0.0417571 0.387451 0.204606 0.365069 0.38682 0.318266 0.810242 0.379027 0.25168 0.494666 0.214339 0.103314 0.593029 0.159638 0.341014 0.703908 0.561877 0.443485 0.193719 0.113804 0.1859 0.132873 0.096944 0.265381 0.207171 1.06121 0.794012 0.796351 0.819892 0.790626 0.255355 0.759456 0.779549 0.298517 0.446101 0.297361 1.38602 1.26953 1.26424 1.11685 0.446792 0.911978 0.329719 0.20218 0.21385 0.722671 0.65857 0.573491 0.135199 0.568253 0.571462 0.800884 0.570081 0.475699 0.792098 0.443972 0.336023 0.283267 0.0742699 0.057017 0.501762 0.855143 0.621502 0.692113 1.11103 0.583142 0.574216 0.274791 0.345313 0.213928 0.290235 0.243461 0.431576 0.118484 0.686335 0.41888 1.04808 0.783488 0.211107 0.226591 0.0926699 0.876013 0.92553 0.746858 0.0733598 0.242195 0.176002 1.21436 1.07638 0.646819 0.270849 0.228543 0.32721 0.272498 0.42377 0.868149 0.788437 0.160826 1.03428 1.17527 0.881161 0.345231 0.25073 0.73271 0.721072 0.917041 0.756537 0.76792 0.853164 0.243931 1.02665 0.830795 1.19504 0.176952 0.222308 0.0711746 0.0844881 0.591365 0.0735413 0.296194 0.377133 0.366065 0.62868 0.834167 0.874557 0.490579 0.178381 0.115316 0.0886828 0.651914 0.376032 0.175045 0.0534743 0.0866744 0.0631675 0.268794 0.0795101 0.453443 0.260304 0.303334 0.348237 0.262979 0.410528 0.487505 0.468452 0.384956 0.449602 0.186905 0.922308 0.557476 0.50813 0.550844 0.770769 0.752685 0.932657 0.731737 0.747849 0.539676 0.510576 0.44594 0.432365 0.415575 0.418914 0.310175 0.452431 0.29761 0.42945 0.382599 0.264025 0.475899 0.298624 0.355122 0.365465 0.395298 0.337752 0.398953 0.531493 0.649957 0.0577025 0.0948503 0.84277 0.8174 0.894091 0.872408 0.46376 0.349664 0.599296 0.77905 0.876654 0.56875 0.771787 0.476055 0.108712 0.0882281 0.0586144 0.801402 0.735358 0.585873 0.510573 0.943377 0.768251 0.648297 0.688262 0.0554053 1.05688 1.1071 0.854451 0.494355 0.695945 0.067627 0.0535879 0.601099 0.284278 0.248551 0.0249373 0.0199636 0.0976718 0.070187 0.0312228 0.481167 0.726518 1.04224 0.463634 0.237883 0.284731 0.0905664 0.0862518 1.07412 0.743191 0.751047 0.0988129 0.173899 0.116158 0.317823 0.145172 0.555223 0.573784 0.681461 0.919732 0.749733 0.741392 0.685413 0.534638 0.695853 0.487627 0.705382 0.463677 0.190912 0.225298 0.531611 1.25381 1.39185 1.24725 0.227337 0.364464 0.904653 0.845707 1.23826 0.863193 0.930451 0.15142 0.0964372 0.0705193 0.101024 0.0496122 0.0571743 0.0311446 0.844825 1.28529 0.0712631 0.351157 0.630103 0.564997 0.140147 1.29994 1.1774 0.0508907 0.0283186 0.390918 1.00633 0.750055 0.993548 0.948494 0.747412 1.08068 1.05951 0.814221 0.914971 0.548134 0.811787 1.43791 1.28791 1.20835 0.659471 0.405103 0.224902 0.381497 0.121466 0.134321 1.03364 0.0439941 0.167267 0.744145 0.73118 0.810376 0.673735 0.783823 0.501682 0.445062 0.874371 0.33901 0.969798 0.0995593 0.610469 0.55781 0.208368 0.15687 0.260132 0.448781 0.0576172 0.645826 0.658201 0.818473 0.411037 0.547696 0.638562 0.447395 0.516608 0.917966 0.71917 1.00859 0.757866 0.804286 0.197538 0.701723 0.491499 0.51101 0.67446 0.585488 0.751618 0.71018 0.727329 0.290191 0.83791 1.12302 1.11602 0.927996 0.801166 0.538644 0.200024 0.570961 0.522412 0.950997 0.7857 0.729351 0.87466 0.460605 0.533035 0.385473 0.39698 1.08346 0.968164 0.0562842 0.741893 0.322533 0.313866 0.736474 0.224125 0.0986301 1.24431 0.795812 0.973089 0.0723684 0.065142 0.474139 0.0415406 0.0917265 1.45784 0.261971 1.05409 0.14527 0.840831 0.838864 0.242433 0.413356 0.211684 0.52244 0.1708 0.735972 0.78888 0.844191 0.896451 0.891422 0.794779 0.167718 0.972902 0.81054 0.492572 0.592123 1.0219 1.01451 0.590018 0.62712 0.541521 1.09459 0.953504 1.01468 0.63806 0.746083 1.01882 0.654443 0.80291 0.736272 0.511729 0.0202186 0.0838683 0.0562774 0.192821 0.396843 0.534065 0.554301 0.408227 0.338106 0.698332 0.673888 0.0851248 0.070319 0.0673639 0.888861 1.02499 0.627588 0.38047 0.107637 0.791011 0.766237 0.99912 0.540953 0.790183 0.0528735 0.609547 0.391125 0.146586 0.226998 0.606598 0.736143 0.620057 0.545297 0.794963 0.616573 1.1677 1.07761 0.916267 1.09348 0.100885 0.267128 0.123926 0.227466 0.120341 0.0748848 0.480954 0.118456 0.0740254 0.0448374 0.212099 0.132247 0.764524 0.589411 1.06209 1.05363 0.770183 0.201688 0.665192 0.625312 0.109465 1.03233 1.04195 0.0490911 1.09826 1.10448 1.04676 0.316929 0.992578 0.456668 0.273849 0.569274 0.627191 0.115855 0.176173 0.172839 0.161063 0.141845 0.150038 0.320277 0.40234 0.686939 0.14345 0.399601 0.232789 0.554778 0.366648 0.367031 0.732102 0.749723 0.949299 0.968418 1.00507 0.980273 0.298741 1.03961 1.07038 1.19832 1.39571 0.0787963 0.0543739 0.885025 0.841263 0.348576 0.445541 0.364729 0.0336618 0.112323 0.0714909 0.0866605 1.35961 0.315661 0.398888 0.347783 0.298709 0.163246 0.217442 0.189738 0.691691 0.631868 0.755073 0.65582 0.802165 0.977087 0.835781 0.988208 0.938951 0.487324 0.0375588 0.0645546 0.0483208 0.0183875 0.963157 0.268092 0.435364 0.406062 0.755238 0.982567 1.01619 0.954193 0.913518 0.604084 0.733646 0.746929 0.82752 0.219895 0.859168 0.912759 0.987712 1.03126 0.282496 0.288855 0.382741 0.700684 0.14459 
