# vtk DataFile Version 5.1
vtk output
ASCII

DATASET UNSTRUCTURED_GRID
POINTS 17261 float
0.175 0 0
0.176452 -0.0657684 -0.0665694
0.240888 -0.0976811 -0.0975983
0.324725 -0.116826 -0.116864
0.41131 -0.125962 -0.126164
0.497804 -0.128273 -0.128659
0.584505 -0.124623 -0.12531
0.671888 -0.113683 -0.115046
0.754576 -0.0926887 -0.0950533
0.810191 -0.0591748 -0.0601641
0.826 0 0
0.175 0.1 0
0.198585 0.0526765 -0.0704469
0.264322 0.0142347 -0.10749
0.339715 -0.00516452 -0.1226
0.4179 -0.0143255 -0.129774
0.4971 -0.0167161 -0.131872
0.576303 -0.0130334 -0.12938
0.654576 -0.00203823 -0.121477
0.728413 0.0183608 -0.104088
0.784854 0.0506436 -0.069672
0.826 0.1 0
0.175 0.2 0
0.198578 0.16552 -0.0698576
0.271684 0.136367 -0.113966
0.34774 0.116962 -0.131829
0.422541 0.107244 -0.13871
0.496883 0.104711 -0.140392
0.571179 0.108432 -0.137811
0.645609 0.119039 -0.129398
0.718465 0.137853 -0.110097
0.778691 0.167161 -0.0717409
0.826 0.2 0
0.175 0.3 0
0.198462 0.277112 -0.0712031
0.272609 0.258079 -0.118335
0.349765 0.243822 -0.138581
0.424184 0.236004 -0.146736
0.496977 0.23384 -0.148653
0.56961 0.236895 -0.145592
0.643261 0.245257 -0.135935
0.71685 0.259115 -0.114449
0.778446 0.279038 -0.0733044
0.826 0.3 0
0.175 0.4 0
0.19814 0.38818 -0.0722753
0.272362 0.378943 -0.121017
0.350025 0.371449 -0.142651
0.424656 0.367366 -0.151737
0.497329 0.366342 -0.153947
0.56979 0.368228 -0.150556
0.643593 0.372935 -0.139902
0.717521 0.380133 -0.116972
0.779025 0.390063 -0.0743885
0.826 0.4 0
0.175 0.5 0
0.19805 0.499043 -0.0728009
0.272395 0.49937 -0.122088
0.350348 0.498981 -0.144131
0.425173 0.499225 -0.153485
0.49796 0.499821 -0.155771
0.570448 0.500477 -0.152177
0.644267 0.501032 -0.141147
0.718113 0.501097 -0.117715
0.779383 0.501244 -0.0748284
0.826 0.5 0
0.175 0.6 0
0.198372 0.60956 -0.0727928
0.27309 0.61937 -0.121519
0.351248 0.626119 -0.143049
0.426161 0.630855 -0.152011
0.498954 0.633312 -0.15404
0.571318 0.632957 -0.150407
0.644868 0.629494 -0.139567
0.718306 0.622514 -0.116534
0.779195 0.612679 -0.0743455
0.826 0.6 0
0.175 0.7 0
0.198977 0.719665 -0.0726125
0.273961 0.73878 -0.119395
0.35216 0.752426 -0.13955
0.427265 0.761451 -0.14744
0.500318 0.76571 -0.14886
0.572789 0.764894 -0.145257
0.64597 0.758272 -0.135128
0.718514 0.744622 -0.113373
0.778696 0.724501 -0.0729238
0.826 0.7 0
0.175 0.8 0
0.198898 0.82905 -0.0721086
0.273344 0.85724 -0.116026
0.351291 0.876879 -0.133974
0.427312 0.889108 -0.14033
0.501972 0.894901 -0.140772
0.575848 0.894298 -0.136867
0.649367 0.88638 -0.127493
0.720803 0.868196 -0.108031
0.779027 0.837825 -0.0704278
0.826 0.8 0
0.175 0.9 0
0.194872 0.937763 -0.0689548
0.267101 0.974135 -0.112063
0.345283 0.997407 -0.127823
0.423861 1.01067 -0.132924
0.502711 1.01691 -0.13239
0.58135 1.01675 -0.127234
0.658271 1.00925 -0.116905
0.729507 0.991845 -0.099199
0.784203 0.955156 -0.0671746
0.826 0.9 0
0.175 1 0
0.181412 1.0543 -0.074693
0.245715 1.08763 -0.105843
0.328295 1.10956 -0.123418
0.414279 1.12271 -0.129597
0.500389 1.12877 -0.129374
0.586595 1.12903 -0.123516
0.672742 1.12256 -0.110872
0.755473 1.10497 -0.0891903
0.81909 1.07562 -0.0537525
0.826 1 0
0.175 0 0.1
0.198154 -0.0700123 0.0519567
0.2641 -0.107573 0.0141922
0.339779 -0.122611 -0.00529409
0.418049 -0.129588 -0.0145387
0.497321 -0.131474 -0.0170641
0.576609 -0.128729 -0.0135907
0.654888 -0.120509 -0.00290586
0.728374 -0.10275 0.0171524
0.783485 -0.0685354 0.0487281
0.826 0 0.1
0.175 0.1 0.1
0.248446 0.0426733 0.0431374
0.296902 0.00940811 0.00943284
0.356479 -0.00732573 -0.00734
0.424968 -0.0155901 -0.0157495
0.496408 -0.0178678 -0.0181993
0.567481 -0.0147313 -0.0152766
0.634896 -0.00499922 -0.00581259
0.695423 0.0141515 0.0131088
0.751461 0.0494134 0.0483185
0.826 0.1 0.1
0.175 0.2 0.1
0.25478 0.163538 0.03817
0.308816 0.134852 0.000799439
0.367361 0.117027 -0.0168912
0.430698 0.108055 -0.0247764
0.496149 0.105723 -0.0267174
0.56136 0.109151 -0.023437
0.624287 0.119169 -0.0132445
0.683627 0.137808 0.00760927
0.745113 0.167437 0.0456302
0.826 0.2 0.1
0.175 0.3 0.1
0.255551 0.276694 0.0349815
0.311406 0.257752 -0.0052736
0.370601 0.244497 -0.024712
0.432993 0.237242 -0.0334189
0.49632 0.235327 -0.0354163
0.559247 0.238196 -0.0316383
0.620829 0.246165 -0.0203141
0.680784 0.259911 0.00257681
0.744541 0.279544 0.0432967
0.826 0.3 0.1
0.175 0.4 0.1
0.255804 0.38812 0.0329994
0.311896 0.378572 -0.00894924
0.371457 0.371784 -0.0295432
0.433772 0.368017 -0.0389717
0.496638 0.367161 -0.0411226
0.559081 0.368997 -0.0369725
0.620432 0.373392 -0.0248058
0.68066 0.38065 -0.000650057
0.744826 0.390489 0.0416188
0.826 0.4 0.1
0.175 0.5 0.1
0.255963 0.499046 0.0322852
0.312155 0.498547 -0.0102618
0.371952 0.498634 -0.031231
0.434389 0.498968 -0.0408771
0.497179 0.499533 -0.0430606
0.559517 0.500235 -0.0387274
0.620815 0.500618 -0.0262151
0.68099 0.501002 -0.00162457
0.745059 0.501304 0.0410577
0.826 0.5 0.1
0.175 0.6 0.1
0.256204 0.609696 0.0328551
0.312599 0.6181 -0.00920227
0.372561 0.625104 -0.0298017
0.435097 0.629753 -0.0391152
0.497954 0.631998 -0.04109
0.560249 0.631643 -0.0367255
0.621422 0.628195 -0.024372
0.681413 0.621613 -0.000174085
0.745245 0.612378 0.0418609
0.826 0.6 0.1
0.175 0.7 0.1
0.256452 0.720201 0.03466
0.312952 0.737804 -0.00590055
0.37281 0.751375 -0.0253993
0.435586 0.760005 -0.033847
0.498976 0.763959 -0.0353388
0.561763 0.762981 -0.0309771
0.622919 0.756482 -0.0192073
0.682368 0.743374 0.00381333
0.745452 0.723959 0.043992
0.826 0.7 0.1
0.175 0.8 0.1
0.256027 0.831508 0.0377841
0.31139 0.858197 -0.000882224
0.370694 0.877168 -0.0186147
0.434638 0.888447 -0.0258394
0.500153 0.893621 -0.0266215
0.564934 0.892884 -0.0220843
0.627024 0.88517 -0.0109775
0.685554 0.867703 0.0102145
0.746237 0.837322 0.047317
0.826 0.8 0.1
0.175 0.9 0.1
0.249506 0.948386 0.041575
0.302109 0.980001 0.00507207
0.362149 1.00028 -0.0114982
0.429773 1.01198 -0.0179585
0.500451 1.01743 -0.018096
0.571175 1.01748 -0.0127198
0.638728 1.01101 -0.00101239
0.698519 0.994516 0.0191663
0.750812 0.958367 0.0508677
0.826 0.9 0.1
0.175 1 0.1
0.21985 1.06706 0.0447336
0.272864 1.09823 0.00752971
0.343073 1.11598 -0.00987002
0.419707 1.12641 -0.0172557
0.498272 1.13194 -0.0173909
0.577114 1.1323 -0.0114428
0.655609 1.12729 0.00171795
0.733455 1.11169 0.0251039
0.80544 1.06877 0.0633759
0.826 1 0.1
0.175 0 0.2
0.198835 -0.0698082 0.165077
0.271799 -0.113859 0.136342
0.347926 -0.131757 0.116829
0.422755 -0.138478 0.107019
0.497103 -0.140022 0.104352
0.571431 -0.137265 0.10791
0.645731 -0.128634 0.118302
0.717899 -0.10906 0.136725
0.776778 -0.0712416 0.165692
0.826 0 0.2
0.175 0.1 0.2
0.25462 0.0381201 0.163857
0.308926 0.000771173 0.134831
0.367441 -0.0168511 0.116914
0.430783 -0.0246298 0.10784
0.49621 -0.0264306 0.105344
0.561352 -0.022965 0.10863
0.624166 -0.012567 0.118478
0.683478 0.00854072 0.137029
0.745271 0.0465542 0.166845
0.826 0.1 0.2
0.175 0.2 0.2
0.259472 0.160983 0.161062
0.323513 0.129444 0.129556
0.380876 0.110406 0.110417
0.438224 0.101463 0.101321
0.496692 0.0994339 0.0991445
0.555429 0.103357 0.102888
0.613625 0.114122 0.113496
0.672357 0.134018 0.133373
0.738414 0.164516 0.164022
0.826 0.2 0.2
0.175 0.3 0.2
0.260749 0.275301 0.158568
0.326954 0.255061 0.124581
0.385157 0.241082 0.103973
0.441235 0.233686 0.0941714
0.497213 0.23185 0.0919676
0.553395 0.234988 0.096201
0.610197 0.243477 0.107842
0.669602 0.257663 0.129269
0.737862 0.27755 0.161904
0.826 0.3 0.2
0.175 0.4 0.2
0.261094 0.387592 0.156883
0.328012 0.377462 0.12127
0.386489 0.370416 0.0996731
0.442316 0.366584 0.0893133
0.497664 0.365782 0.0870192
0.553169 0.367662 0.0915789
0.609702 0.372345 0.103953
0.669371 0.379623 0.126463
0.738134 0.389235 0.160441
0.826 0.4 0.2
0.175 0.5 0.2
0.261252 0.499108 0.156261
0.328445 0.498597 0.120082
0.387079 0.498637 0.0981176
0.44295 0.498971 0.0876095
0.498185 0.49959 0.0853236
0.553552 0.500226 0.0900497
0.609967 0.500599 0.102703
0.669644 0.500877 0.12564
0.738303 0.500715 0.160029
0.826 0.5 0.2
0.175 0.6 0.2
0.26153 0.610334 0.156763
0.328814 0.619342 0.121029
0.387529 0.626633 0.0994979
0.443503 0.631265 0.0892699
0.498858 0.633418 0.0871246
0.554301 0.632849 0.0918685
0.610631 0.629145 0.104354
0.67003 0.622335 0.126893
0.738421 0.612428 0.160791
0.826 0.6 0.2
0.175 0.7 0.2
0.261719 0.721602 0.158242
0.32877 0.740812 0.123975
0.387359 0.754867 0.103489
0.443628 0.7636 0.0939989
0.499633 0.767434 0.0922187
0.555644 0.766132 0.0969063
0.612081 0.759067 0.108846
0.671022 0.745259 0.130327
0.738621 0.724853 0.162628
0.826 0.7 0.2
0.175 0.8 0.2
0.261349 0.834058 0.160567
0.326491 0.863852 0.128167
0.38442 0.883626 0.109235
0.44208 0.895129 0.100768
0.500534 0.899939 0.0994971
0.559001 0.898666 0.104181
0.616615 0.890306 0.115482
0.674529 0.871399 0.135399
0.739754 0.839243 0.165399
0.826 0.8 0.2
0.175 0.9 0.2
0.254788 0.951843 0.162624
0.315553 0.988629 0.131983
0.374144 1.01028 0.114372
0.436193 1.02133 0.106573
0.500933 1.02613 0.10578
0.566284 1.02519 0.110807
0.630128 1.01815 0.122079
0.689249 1.00031 0.141024
0.744503 0.962032 0.167952
0.826 0.9 0.2
0.175 1 0.2
0.224829 1.07023 0.162878
0.28202 1.10719 0.131671
0.352228 1.12679 0.113137
0.425322 1.13616 0.105121
0.499125 1.14017 0.104479
0.573729 1.13979 0.110144
0.6496 1.13349 0.122404
0.727426 1.11553 0.142215
0.801459 1.07117 0.171445
0.826 1 0.2
0.175 0 0.3
0.198993 -0.0711927 0.276639
0.272891 -0.118155 0.258059
0.35001 -0.138452 0.243714
0.42437 -0.146496 0.23579
0.497138 -0.148296 0.233561
0.569686 -0.145126 0.23649
0.643125 -0.135304 0.244683
0.715803 -0.113574 0.25819
0.776258 -0.0731504 0.277961
0.826 0 0.3
0.175 0.1 0.3
0.255383 0.0349285 0.276973
0.31153 -0.00522776 0.257701
0.370722 -0.0246552 0.24442
0.433048 -0.0332815 0.237086
0.496285 -0.0351558 0.23505
0.559156 -0.031198 0.237836
0.620649 -0.0196843 0.245697
0.68064 0.00340551 0.25941
0.744516 0.044016 0.279084
0.826 0.1 0.3
0.175 0.2 0.3
0.260706 0.158501 0.27544
0.326917 0.124488 0.255198
0.38516 0.103989 0.241137
0.441229 0.0942978 0.233593
0.497199 0.0922323 0.231644
0.553389 0.0966529 0.234701
0.610159 0.108425 0.243032
[...]
POINT_DATA 17261
SCALARS Displacements float 1
LOOKUP_TABLE default
0.175 0.120838 0.14401 0.167083 0.178639 0.181692 0.177408 0.164164 0.14032 0.123236 0.174 0.175 0.130082 0.151813 0.166336 0.173874 0.176129 0.173428 0.165021 0.150413 0.143348 0.174 0.175 0.125645 0.148916 0.162951 0.168381 0.169705 0.16795 0.16204 0.150438 0.14471 0.174 0.175 0.123646 0.145026 0.157599 0.161901 0.162739 0.161563 0.157145 0.147255 0.143487 0.174 0.175 0.122454 0.142565 0.15384 0.157152 0.157606 0.156809 0.153254 0.144499 0.142364 0.174 0.175 0.122125 0.14194 0.152675 0.155538 0.155784 0.155021 0.151756 0.143399 0.141948 0.174 0.175 0.122749 0.143123 0.15418 0.157302 0.157604 0.156624 0.152933 0.144087 0.142414 0.174 0.175 0.124321 0.145703 0.157935 0.162044 0.162719 0.161404 0.156763 0.146576 0.143642 0.174 0.175 0.125795 0.14872 0.162758 0.16846 0.169785 0.167953 0.16211 0.150312 0.145001 0.174 0.175 0.123213 0.150189 0.166966 0.174603 0.176642 0.173686 0.165356 0.152464 0.144788 0.174 0.175 0.123107 0.144814 0.167442 0.179042 0.182537 0.179125 0.167504 0.144762 0.123103 0.174 0.175 0.129785 0.151802 0.166441 0.173891 0.176059 0.173266 0.164764 0.150172 0.144574 0.174 0.175 0.168985 0.160622 0.161958 0.165476 0.166963 0.16586 0.162664 0.160799 0.165208 0.174 0.175 0.170615 0.161015 0.158385 0.158005 0.157988 0.158061 0.1584 0.161079 0.167352 0.174 0.175 0.170196 0.158993 0.153682 0.151088 0.150112 0.151027 0.153758 0.159094 0.166737 0.174 0.175 0.170015 0.157638 0.150611 0.146549 0.144932 0.146277 0.150385 0.157311 0.166065 0.174 0.175 0.170031 0.157285 0.149668 0.145017 0.143089 0.144514 0.149 0.156499 0.165779 0.174 0.175 0.1703 0.157896 0.15081 0.146527 0.144687 0.14586 0.149793 0.156731 0.165779 0.174 0.175 0.170747 0.159381 0.153837 0.150937 0.149694 0.150279 0.152781 0.15802 0.16612 0.174 0.175 0.170904 0.161158 0.158183 0.157665 0.157474 0.157359 0.157783 0.160447 0.166768 0.174 0.175 0.16765 0.160741 0.162328 0.165351 0.16654 0.165341 0.162111 0.160517 0.167564 0.174 0.175 0.148038 0.153325 0.165466 0.173542 0.17661 0.174493 0.16683 0.150044 0.122526 0.174 0.175 0.125941 0.1489 0.163016 0.168343 0.169596 0.167745 0.161761 0.15046 0.146411 0.174 0.175 0.170419 0.161115 0.158448 0.15803 0.157984 0.157995 0.158329 0.160958 0.167023 0.174 0.175 0.16873 0.158732 0.15031 0.144596 0.142465 0.144073 0.149394 0.158384 0.169303 0.174 0.175 0.16783 0.154353 0.141224 0.13152 0.127762 0.131045 0.140543 0.154269 0.16806 0.174 0.175 0.167225 0.151965 0.135724 0.123121 0.118072 0.12245 0.134698 0.151284 0.166977 0.174 0.175 0.167081 0.151284 0.134032 0.120322 0.114691 0.119359 0.132563 0.150077 0.166566 0.174 0.175 0.167536 0.152327 0.135909 0.123009 0.117724 0.121901 0.134106 0.150784 0.166732 0.174 0.175 0.168415 0.155007 0.141267 0.13109 0.127139 0.130266 0.139742 0.153421 0.167504 0.174 0.175 0.169554 0.158862 0.149527 0.143761 0.141735 0.143517 0.149169 0.158158 0.168571 0.174 0.175 0.167463 0.16073 0.158087 0.157353 0.157443 0.157367 0.157837 0.160644 0.170454 0.174 0.175 0.147962 0.151283 0.16232 0.167875 0.169626 0.168239 0.162422 0.148163 0.12486 0.174 0.175 0.124152 0.145027 0.157601 0.161796 0.162524 0.161289 0.15685 0.147432 0.145426 0.174 0.175 0.170025 0.159063 0.15372 0.151044 0.149998 0.150816 0.153524 0.158824 0.166575 0.174 0.175 0.167785 0.154328 0.141192 0.131464 0.127649 0.130832 0.140366 0.154133 0.168053 0.174 0.175 0.166004 0.14697 0.126351 0.109741 0.103083 0.109453 0.126206 0.147318 0.166081 0.174 0.175 0.164906 0.142659 0.116674 0.0941389 0.0845754 0.0938394 0.11643 0.142699 0.164598 0.174 0.175 0.164587 0.141329 0.113445 0.0885194 0.0774547 0.0880173 0.112921 0.140981 0.164008 0.174 0.175 0.165086 0.142988 0.116789 0.0939473 0.0840844 0.0932015 0.115863 0.14226 0.164436 0.174 0.175 0.166557 0.147457 0.126148 0.109104 0.102337 0.108797 0.125643 0.146695 0.165568 0.174 0.175 0.168393 0.154046 0.140065 0.130365 0.12691 0.130749 0.140629 0.154182 0.16747 0.174 0.175 0.166923 0.158389 0.152953 0.150333 0.149641 0.150594 0.153276 0.158691 0.170083 0.174 0.175 0.146595 0.147322 0.156834 0.161296 0.162593 0.1617 0.157454 0.14486 0.123694 0.174 0.175 0.122999 0.14253 0.153806 0.156979 0.157294 0.156429 0.152961 0.144781 0.14453 0.174 0.175 0.169892 0.157677 0.150586 0.146399 0.14467 0.14597 0.150084 0.157044 0.165922 0.174 0.175 0.167173 0.151837 0.13562 0.122951 0.117826 0.122148 0.134421 0.151067 0.166946 0.174 0.175 0.164918 0.142614 0.116605 0.0940603 0.084394 0.09372 0.116387 0.142712 0.164583 0.174 0.175 0.163438 0.136921 0.103306 0.0703288 0.0537795 0.0701495 0.103119 0.136718 0.162885 0.174 0.175 0.16299 0.135124 0.0987323 0.060656 0.0385016 0.0601493 0.0981466 0.13449 0.162166 0.174 0.175 0.163624 0.13721 0.103402 0.0701592 0.0531473 0.0696209 0.10269 0.136346 0.162623 0.174 0.175 0.165387 0.143012 0.116399 0.0934188 0.0837756 0.0934115 0.115969 0.142039 0.164122 0.174 0.175 0.167762 0.151369 0.134351 0.121903 0.117368 0.122445 0.135217 0.151429 0.166512 0.174 0.175 0.166605 0.157015 0.14997 0.145867 0.144387 0.146139 0.150213 0.157244 0.169565 0.174 0.175 0.145343 0.144822 0.153039 0.156482 0.157295 0.156811 0.153513 0.142272 0.122238 0.174 0.175 0.122606 0.1419 0.152608 0.155314 0.15544 0.154613 0.1514 0.143739 0.144348 0.174 0.175 0.169913 0.157268 0.149575 0.144789 0.142761 0.144156 0.148705 0.156206 0.165601 0.174 0.175 0.167011 0.151154 0.133892 0.120069 0.114359 0.118964 0.132258 0.149973 0.166538 0.174 0.175 0.1646 0.141334 0.113442 0.0883926 0.0772249 0.0877551 0.112712 0.140944 0.164096 0.174 0.175 0.163021 0.135132 0.0987332 0.0606501 0.0384586 0.060106 0.0981784 0.134564 0.162183 0.174 0.175 0.162492 0.133169 0.0936081 0.0482965 0.00044603 0.0474547 0.0927174 0.13214 0.161436 0.174 0.175 0.16326 0.135526 0.0990113 0.0606072 0.0382079 0.0597374 0.0977546 0.134154 0.161988 0.174 0.175 0.165105 0.141784 0.113353 0.0880589 0.0769689 0.0877545 0.112556 0.140365 0.163642 0.174 0.175 0.167628 0.150717 0.132784 0.119185 0.114338 0.119636 0.133335 0.150369 0.166118 0.174 0.175 0.166596 0.156819 0.149222 0.144584 0.142983 0.144617 0.149012 0.156652 0.169266 0.174 0.175 0.145022 0.144111 0.151869 0.154837 0.155522 0.155016 0.151902 0.141041 0.121681 0.174 0.175 0.123069 0.143103 0.154135 0.15709 0.157281 0.156267 0.152632 0.144534 0.144927 0.174 0.175 0.170214 0.157906 0.150725 0.146314 0.144385 0.145478 0.149473 0.156473 0.165682 0.174 0.175 0.167331 0.152159 0.135769 0.122787 0.117448 0.121576 0.133815 0.15056 0.166683 0.174 0.175 0.165114 0.142955 0.116787 0.0938726 0.0839362 0.0931055 0.115713 0.142146 0.164383 0.174 0.175 0.163626 0.137223 0.103496 0.0702213 0.0533561 0.069607 0.102719 0.136272 0.162634 0.174 0.175 0.16322 0.13548 0.0990295 0.0607689 0.0383617 0.0599407 0.0978499 0.134157 0.161957 0.174 0.175 0.163844 0.13773 0.103998 0.0706952 0.0533904 0.0695122 0.102352 0.135936 0.162437 0.174 0.175 0.165665 0.143617 0.117056 0.0941047 0.0842474 0.0933553 0.115749 0.141681 0.163944 0.174 0.175 0.16808 0.152037 0.134975 0.122395 0.117865 0.122572 0.134898 0.151006 0.16618 0.174 0.175 0.166919 0.157699 0.150549 0.146497 0.144872 0.146166 0.149889 0.157018 0.169268 0.174 0.175 0.145344 0.145309 0.153307 0.156712 0.157435 0.156683 0.153097 0.141632 0.122006 0.174 0.175 0.124427 0.145727 0.157944 0.161915 0.162478 0.161131 0.156529 0.147029 0.146137 0.174 0.175 0.170689 0.159392 0.153769 0.150793 0.149447 0.149988 0.152529 0.157761 0.166003 0.174 0.175 0.168276 0.15489 0.141228 0.131014 0.126944 0.130004 0.139425 0.153211 0.167371 0.174 0.175 0.166516 0.147477 0.126275 0.109173 0.102389 0.108654 0.125524 0.146525 0.165465 0.174 0.175 0.165384 0.143121 0.116636 0.0937336 0.0841037 0.0933182 0.116046 0.14205 0.164171 0.174 0.175 0.16511 0.141862 0.113621 0.0883689 0.0773449 0.0879704 0.112659 0.140375 0.163592 0.174 0.175 0.165689 0.143711 0.117182 0.0942878 0.0844013 0.0934216 0.115709 0.141656 0.163873 0.174 0.175 0.16714 0.14839 0.126928 0.10981 0.102917 0.109194 0.125489 0.146085 0.165018 0.174 0.175 0.169122 0.15498 0.141117 0.131264 0.127661 0.131031 0.140406 0.153511 0.166946 0.174 0.175 0.167644 0.159547 0.153973 0.151192 0.150317 0.150712 0.153105 0.158468 0.169435 0.174 0.175 0.146331 0.148009 0.157268 0.161561 0.16266 0.161493 0.156878 0.144092 0.123137 0.174 0.175 0.125449 0.148992 0.162844 0.168458 0.169654 0.167775 0.161997 0.150947 0.147419 0.174 0.175 0.171028 0.161203 0.158152 0.157599 0.157315 0.157148 0.157542 0.160113 0.166454 0.174 0.175 0.169393 0.158804 0.149705 0.143779 0.141654 0.14339 0.148968 0.158002 0.168424 0.174 0.175 0.168313 0.154142 0.140332 0.130603 0.127083 0.130656 0.140496 0.154041 0.167362 0.174 0.175 0.167742 0.151553 0.134705 0.122136 0.117584 0.122505 0.135127 0.151328 0.166354 0.174 0.175 0.16758 0.15099 0.133106 0.119589 0.114501 0.119758 0.133215 0.150308 0.166053 0.174 0.175 0.168016 0.152205 0.135379 0.122801 0.118034 0.122629 0.134787 0.150865 0.166172 0.174 0.175 0.169102 0.155128 0.141233 0.131419 0.12787 0.131107 0.140459 0.153454 0.166782 0.174 0.175 0.170394 0.159253 0.149997 0.14452 0.142491 0.144193 0.149671 0.15793 0.16779 0.174 0.175 0.168286 0.161729 0.158767 0.158204 0.15824 0.157752 0.157804 0.160503 0.169863 0.174 0.175 0.147383 0.151237 0.16216 0.168024 0.169715 0.167948 0.162232 0.147895 0.124797 0.174 0.175 0.122816 0.150602 0.167201 0.174731 0.176612 0.173538 0.165292 0.153036 0.147334 0.174 0.175 0.167722 0.160706 0.162274 0.165264 0.166509 0.165187 0.161807 0.160202 0.166592 0.174 0.175 0.167476 0.160993 0.158075 0.157545 0.157453 0.157288 0.157715 0.160412 0.169754 0.174 0.175 0.16707 0.158684 0.153363 0.150454 0.149679 0.150566 0.153183 0.158585 0.169588 0.174 0.175 0.166775 0.157359 0.150171 0.146006 0.144544 0.146152 0.150059 0.157042 0.169171 0.174 0.175 0.166805 0.157315 0.149572 0.144811 0.143019 0.144546 0.148828 0.156305 0.16886 0.174 0.175 0.167143 0.158067 0.151075 0.146687 0.145029 0.146193 0.149804 0.156669 0.168841 0.174 0.175 0.167886 0.160015 0.154386 0.151511 0.150421 0.150954 0.153111 0.158122 0.169105 0.174 0.175 0.168475 0.162034 0.159024 0.158502 0.15832 0.157769 0.157924 0.160257 0.169518 0.174 0.175 0.166482 0.161784 0.163369 0.166457 0.166935 0.16517 0.161433 0.160032 0.16841 0.174 0.175 0.146054 0.150889 0.165174 0.173582 0.176212 0.173549 0.165852 0.150835 0.128498 0.174 0.175 0.123596 0.145258 0.167885 0.179275 0.182596 0.179041 0.167549 0.145005 0.123315 0.174 0.175 0.145363 0.152865 0.16553 0.173697 0.176603 0.174482 0.166769 0.149975 0.123561 0.174 0.175 0.145221 0.150735 0.16242 0.168123 0.169769 0.168187 0.162396 0.148414 0.125761 0.174 0.175 0.143919 0.147008 0.157108 0.161492 0.162698 0.161708 0.157549 0.145265 0.124658 0.174 0.175 0.142792 0.144524 0.153193 0.156678 0.157498 0.157052 0.153666 0.142746 0.123152 0.174 0.175 0.142279 0.143829 0.152071 0.155141 0.155757 0.15515 0.152139 0.141507 0.122559 0.174 0.175 0.142756 0.144905 0.153609 0.157015 0.157634 0.156896 0.153312 0.142134 0.122834 0.174 0.175 0.143931 0.147669 0.157554 0.161886 0.162758 0.161789 0.157185 0.144633 0.124004 0.174 0.175 0.145365 0.150886 0.162414 0.168253 0.169843 0.168233 0.162568 0.148466 0.125891 0.174 0.175 0.14434 0.150733 0.165402 0.173696 0.176367 0.173796 0.166077 0.151431 0.12967 0.174 0.175 0.121547 0.140045 0.16435 0.177594 0.181713 0.178467 0.166698 0.143296 0.120235 0.174 0.173797 0.150441 0.160023 0.169308 0.173864 0.173652 0.168712 0.159394 0.151494 0.164947 0.173139 0.156927 0.16087 0.165054 0.167349 0.167405 0.165204 0.161196 0.159967 0.169059 0.173201 0.155039 0.15799 0.159972 0.160665 0.160706 0.160109 0.158836 0.160317 0.169388 0.173027 0.153676 0.155084 0.155429 0.155001 0.154962 0.155447 0.155908 0.159146 0.169302 0.172919 0.152959 0.153565 0.152969 0.151875 0.151723 0.152738 0.15409 0.158301 0.16927 0.172834 0.153047 0.153715 0.153044 0.15184 0.151579 0.152496 0.153844 0.158142 0.169271 0.172872 0.153853 0.155416 0.155585 0.154888 0.154535 0.154803 0.155253 0.158688 0.169336 0.172847 0.15506 0.158235 0.160118 0.160524 0.16018 0.159363 0.158149 0.159877 0.169528 0.1723 0.15539 0.16089 0.165315 0.167367 0.167156 0.164806 0.161172 0.161206 0.16972 0.169811 0.152329 0.161208 0.169757 0.174187 0.174209 0.169764 0.161184 0.151866 0.168717 0.172905 0.157167 0.161126 0.165178 0.167383 0.167353 0.165038 0.160875 0.159476 0.1689 0.173489 0.166158 0.159793 0.157561 0.156774 0.15676 0.157528 0.159269 0.163634 0.171162 0.173184 0.164577 0.155036 0.148762 0.145476 0.145394 0.14853 0.154399 0.162941 0.171484 0.173018 0.163209 0.151265 0.142147 0.136861 0.136628 0.14155 0.150286 0.161419 0.171412 0.172939 0.1626 0.14947 0.138867 0.132445 0.132043 0.137852 0.147996 0.160464 0.171312 0.172968 0.162708 0.149596 0.138916 0.13235 0.131818 0.137546 0.147722 0.160286 0.171324 0.173069 0.163498 0.151535 0.14224 0.136601 0.136009 0.140707 0.149501 0.16096 0.171427 0.173173 0.164735 0.155178 0.148728 0.145089 0.144623 0.147526 0.153546 0.162498 0.171655 0.172919 0.165275 0.159461 0.157213 0.156341 0.156275 0.156974 0.15897 0.164607 0.172021 0.170559 0.161631 0.161426 0.164883 0.167124 0.167308 0.165185 0.160631 0.154873 0.171141 0.172885 0.155211 0.158273 0.160098 0.160664 0.160571 0.159851 0.158469 0.159935 0.169187 0.17326 0.164571 0.15501 0.14875 0.145429 0.145278 0.148404 0.154311 0.162902 0.171369 0.172648 0.160729 0.145638 0.132882 0.125628 0.125597 0.132781 0.145444 0.160435 0.171511 0.172277 0.157962 0.138377 0.120225 0.109069 0.108997 0.120058 0.138129 0.15762 0.171245 0.17209 0.156669 0.134864 0.11371 0.100065 0.099843 0.113186 0.134219 0.156034 0.171041 0.172104 0.156783 0.134972 0.113721 0.0999063 0.0995196 0.11284 0.13395 0.155898 0.17101 0.172296 0.15825 0.138564 0.120143 0.108609 0.108204 0.119188 0.137427 0.157203 0.171189 0.172582 0.160901 0.145512 0.132428 0.1249 0.124754 0.131958 0.14482 0.16006 0.171579 0.172587 0.163237 0.154052 0.147721 0.144626 0.144822 0.148236 0.154474 0.163991 0.172213 0.170525 0.160315 0.15832 0.15941 0.160112 0.160342 0.159797 0.157818 0.154465 0.171789 0.17273 0.153804 0.155331 0.155504 0.154906 0.154726 0.155098 0.155529 0.158842 0.169141 0.173115 0.163186 0.151203 0.142062 0.136718 0.136423 0.141319 0.150141 0.161357 0.171298 0.172292 0.157956 0.138359 0.120175 0.108975 0.108903 0.119967 0.138085 0.157608 0.171227 0.171771 0.153962 0.127732 0.100744 0.0821062 0.0821145 0.100741 0.12767 0.153696 0.170816 0.171515 0.152019 0.122309 0.089804 0.0648505 0.0647332 0.089527 0.121995 0.151536 0.170545 0.171523 0.152109 0.122406 0.0897783 0.064614 0.0643103 0.0891662 0.121717 0.151405 0.170521 0.171789 0.154182 0.127849 0.100546 0.0814728 0.0812124 0.0999232 0.127075 0.153319 0.170789 0.172212 0.158007 0.138035 0.119495 0.108128 0.108148 0.11942 0.137732 0.157341 0.171304 0.172377 0.161654 0.14994 0.140832 0.13585 0.136183 0.14158 0.150693 0.162671 0.172133 0.170401 0.159066 0.155391 0.154781 0.154428 0.154628 0.155179 0.15487 0.153124 0.171824 0.172626 0.153071 0.153809 0.153009 0.151705 0.151414 0.152329 0.153729 0.158007 0.169116 0.173041 0.162565 0.149375 0.138715 0.132226 0.131739 0.137571 0.147855 0.160401 0.171189 0.172119 0.156666 0.134821 0.11361 0.0999103 0.0996655 0.113034 0.134166 0.156031 0.17099 0.171525 0.152034 0.122312 0.0897791 0.0648287 0.064679 0.0895012 0.122003 0.151543 0.170527 0.17123 0.149739 0.115734 0.0752866 0.0363151 0.0360064 0.0748299 0.115179 0.149023 0.170233 0.171256 0.14985 0.115846 0.0752907 0.0360331 0.0354523 0.074464 0.114931 0.148919 0.17022 0.171556 0.152259 0.122457 0.089645 0.0642419 0.0639306 0.0888749 0.121476 0.151194 0.170504 0.172042 0.156705 0.134484 0.113005 0.0992435 0.0991986 0.11284 0.134037 0.155867 0.171097 0.172272 0.161023 0.148123 0.137589 0.131556 0.131854 0.138163 0.148683 0.161863 0.172013 0.170256 0.158529 0.153984 0.152423 0.151418 0.15151 0.152576 0.153121 0.152268 0.171799 0.17258 0.153176 0.153968 0.153079 0.151658 0.151235 0.152084 0.15349 0.157889 0.169109 0.173042 0.162676 0.149492 0.138755 0.132127 0.131528 0.137247 0.147586 0.160229 0.171182 0.172116 0.156774 0.134929 0.113635 0.099772 0.0993961 0.112713 0.133883 0.155849 0.170961 0.171522 0.152118 0.122413 0.0897796 0.0646453 0.0643667 0.0892252 0.121727 0.151356 0.170493 0.171239 0.149841 0.115851 0.0753588 0.036236 0.0357004 0.0745906 0.114994 0.148922 0.170202 0.171258 0.149978 0.116041 0.075534 0.0362224 0.0354123 0.0743235 0.114782 0.148788 0.170189 0.171565 0.152438 0.122724 0.089992 0.0645722 0.0640016 0.0887708 0.121313 0.151041 0.170489 0.172071 0.156918 0.134796 0.113343 0.0995551 0.0993364 0.112781 0.133899 0.155704 0.171086 0.172281 0.161222 0.148449 0.13791 0.131793 0.13191 0.138063 0.148531 0.161716 0.172004 0.170196 0.158736 0.154225 0.152664 0.151605 0.151575 0.152463 0.152923 0.152113 0.171793 0.172629 0.154049 0.155714 0.155674 0.154781 0.154272 0.154459 0.154936 0.158443 0.169208 0.173113 0.163478 0.151459 0.14213 0.136453 0.135795 0.140485 0.149358 0.160869 0.171295 0.172287 0.158217 0.13855 0.12013 0.108577 0.108208 0.119141 0.137361 0.157111 0.171122 0.171769 0.154204 0.127907 0.100688 0.0816975 0.0814374 0.100076 0.127102 0.153255 0.170738 0.171535 0.152279 0.122539 0.0898642 0.0646641 0.0643262 0.0890864 0.121575 0.15117 0.170469 0.17156 0.152452 0.122794 0.0901105 0.0648163 0.0642546 0.088909 0.121353 0.151034 0.170477 0.171834 0.154586 0.128439 0.10125 0.0820573 0.0814423 0.099796 0.126751 0.152964 0.170726 0.17228 0.15848 0.138801 0.120339 0.108853 0.108493 0.119298 0.137424 0.157 0.171236 0.172376 0.162196 0.150769 0.141652 0.1365 0.136427 0.141392 0.150327 0.162333 0.172083 0.170207 0.159598 0.156063 0.155425 0.154927 0.154799 0.15491 0.154437 0.152778 0.171914 0.172635 0.155358 0.158593 0.160241 0.160466 0.159987 0.159104 0.15787 0.159595 0.169308 0.173164 0.164741 0.155156 0.148718 0.145042 0.144519 0.147391 0.153445 0.162404 0.171504 0.172512 0.160852 0.145543 0.132534 0.12504 0.124847 0.131989 0.144808 0.159991 0.171492 0.172144 0.158015 0.138149 0.119748 0.10848 0.108443 0.119589 0.137773 0.157262 0.171224 0.171972 0.156754 0.134648 0.113327 0.0996786 0.0996085 0.113063 0.134093 0.155804 0.171051 0.172001 0.156957 0.134957 0.113687 0.0999393 0.0996709 0.112939 0.133901 0.155678 0.171038 0.172236 0.158507 0.13888 0.12055 0.109076 0.108604 0.119394 0.137407 0.156953 0.171217 0.172546 0.161286 0.146156 0.13324 0.125648 0.125206 0.132124 0.144717 0.159766 0.171578 0.172474 0.163726 0.154897 0.148754 0.145457 0.145171 0.148095 0.15413 0.163707 0.172235 0.170257 0.160761 0.159019 0.160155 0.160773 0.160494 0.159496 0.157371 0.154133 0.172086 0.171905 0.155652 0.161214 0.165473 0.16736 0.167031 0.164623 0.160984 0.160788 0.169357 0.172866 0.165274 0.159471 0.157291 0.15638 0.156208 0.156873 0.158902 0.164462 0.171807 0.17252 0.163217 0.154136 0.147968 0.144793 0.144918 0.148274 0.154516 0.163825 0.172057 0.172308 0.161676 0.150112 0.141124 0.136133 0.136383 0.141707 0.150759 0.162503 0.171981 0.172222 0.161105 0.148373 0.137938 0.131847 0.13206 0.13829 0.148736 0.161674 0.171872 0.172259 0.161308 0.148732 0.138292 0.132127 0.132128 0.138173 0.14853 0.161537 0.171873 0.17239 0.162294 0.151027 0.14205 0.136833 0.136647 0.141507 0.150349 0.162153 0.17196 0.172529 0.16387 0.155105 0.148993 0.145617 0.145292 0.148187 0.154226 0.163584 0.172132 0.17226 0.16457 0.159956 0.157972 0.156889 0.15654 0.156994 0.158991 0.165292 0.172439 0.170052 0.160492 0.161523 0.165404 0.167481 0.167245 0.164661 0.160285 0.156005 0.172124 0.169726 0.152412 0.161579 0.169915 0.174182 0.174091 0.169555 0.161031 0.152149 0.168589 0.171465 0.161654 0.16153 0.164995 0.167179 0.167256 0.16504 0.160592 0.155119 0.171233 0.17122 0.160454 0.158593 0.159688 0.160287 0.16036 0.159757 0.157874 0.154759 0.171676 0.171024 0.159327 0.155669 0.155121 0.154582 0.154742 0.155198 0.154946 0.153466 0.171725 0.170872 0.158808 0.154284 0.152763 0.151661 0.151642 0.152567 0.153178 0.152591 0.171722 0.170798 0.15902 0.154565 0.153079 0.151854 0.151675 0.152471 0.152949 0.152443 0.17177 0.170785 0.159876 0.156406 0.155868 0.155144 0.154922 0.154999 0.154483 0.153121 0.171922 0.170804 0.161062 0.1593