# vtk DataFile Version 5.1
vtk output
ASCII

DATASET UNSTRUCTURED_GRID
POINTS 2331 float
0.165667 0 0
0.220369 -0.101966 -0.0943375
0.260394 -0.140517 -0.133018
0.310006 -0.151954 -0.145829
0.367648 -0.152232 -0.14754
0.432183 -0.142865 -0.139012
0.502495 -0.126291 -0.123274
0.579113 -0.101354 -0.0993259
0.661194 -0.0696112 -0.0687767
0.747916 -0.0323389 -0.033007
0.834333 0 0
0.165667 0.1 0
0.181684 0.0521803 -0.11264
0.232323 0.0225989 -0.11738
0.281217 -0.00903498 -0.135062
0.338763 -0.0227613 -0.142225
0.403864 -0.0235996 -0.139988
0.476084 -0.0140326 -0.128139
0.55536 0.00450817 -0.107674
0.641668 0.0320462 -0.0791489
0.734336 0.0668513 -0.0426126
0.834333 0.1 0
0.165667 0.2 0
0.203768 0.18028 -0.0788016
0.23279 0.143499 -0.157108
0.285924 0.116622 -0.162304
0.344876 0.102134 -0.158798
0.410136 0.0992948 -0.151042
0.48168 0.105742 -0.137144
0.559874 0.120287 -0.116084
0.645092 0.143167 -0.0863788
0.736719 0.172697 -0.0478181
0.834333 0.2 0
0.165667 0.3 0
0.210286 0.296816 -0.0709752
0.25104 0.280886 -0.136551
0.285788 0.240723 -0.202184
0.346621 0.226704 -0.187918
0.412341 0.221693 -0.169827
0.483738 0.225228 -0.149666
0.561364 0.236041 -0.125016
0.645783 0.254068 -0.0924481
0.736906 0.27842 -0.0508939
0.834333 0.3 0
0.165667 0.4 0
0.214481 0.411087 -0.0657553
0.262569 0.410627 -0.122116
0.307607 0.388458 -0.175838
0.347478 0.350718 -0.222764
0.414337 0.344465 -0.193924
0.485601 0.344849 -0.164684
0.562779 0.351945 -0.134487
0.646675 0.36535 -0.0977733
0.737201 0.384292 -0.0532412
0.834333 0.4 0
0.165667 0.5 0
0.217001 0.523122 -0.0617251
0.270026 0.535041 -0.112298
0.322429 0.526896 -0.156051
0.371962 0.505854 -0.19382
0.41516 0.466529 -0.222123
0.487358 0.464877 -0.182315
0.564075 0.467999 -0.14484
0.647459 0.476648 -0.103469
0.737586 0.490332 -0.0552829
0.834333 0.5 0
0.165667 0.6 0
0.218576 0.633643 -0.0578268
0.274612 0.654679 -0.104639
0.332125 0.657653 -0.14306
0.388904 0.649501 -0.171884
0.441554 0.625367 -0.193407
0.486972 0.583389 -0.203966
0.564771 0.584164 -0.157456
0.647734 0.587867 -0.1104
0.737658 0.596307 -0.0584041
0.834333 0.6 0
0.165667 0.7 0
0.21997 0.743018 -0.0537335
0.277996 0.770849 -0.0981388
0.33895 0.781854 -0.1336
0.400888 0.78342 -0.158487
0.46086 0.770539 -0.17274
0.516002 0.742452 -0.177852
0.563547 0.698241 -0.173432
0.64789 0.698974 -0.118799
0.737647 0.702109 -0.0626898
0.834333 0.7 0
0.165667 0.8 0
0.221849 0.851453 -0.0499285
0.281341 0.884477 -0.0931265
0.344587 0.90101 -0.127423
0.410208 0.909379 -0.150644
0.475621 0.904607 -0.161652
0.538255 0.886195 -0.161267
0.595593 0.853747 -0.151569
0.646264 0.807868 -0.129881
0.737579 0.807587 -0.0684646
0.834333 0.8 0
0.165667 0.9 0
0.223295 0.957297 -0.0484636
0.284857 0.995614 -0.0909458
0.350105 1.01621 -0.124774
0.418658 1.02925 -0.147086
0.488202 1.0299 -0.15682
0.556629 1.01808 -0.153909
0.621514 0.993297 -0.139892
0.681306 0.955756 -0.114468
0.736612 0.911357 -0.0769606
0.834333 0.9 0
0.165667 1 0
0.224737 1.0622 -0.0509421
0.287824 1.10338 -0.0933309
0.356826 1.12904 -0.124241
0.428203 1.14515 -0.144909
0.501487 1.14938 -0.153151
0.574517 1.1414 -0.149144
0.645523 1.12131 -0.133209
0.712253 1.08833 -0.106554
0.774814 1.04828 -0.0739205
0.834333 1 0
0.165667 0 0.1
0.185407 -0.100393 0.0469973
0.235162 -0.119746 0.0278648
0.283768 -0.140234 -0.00310392
0.340854 -0.1472 -0.0181877
0.405454 -0.144154 -0.0205833
0.477181 -0.131936 -0.0122135
0.555865 -0.111103 0.00525086
0.641727 -0.081074 0.031781
0.734371 -0.0418405 0.0661339
0.834333 0 0.1
0.165667 0.1 0.1
0.223906 0.0571142 0.0481272
0.266087 0.0248065 0.0277202
0.308617 -0.00447759 0.000468386
0.36089 -0.0182364 -0.0137486
0.421606 -0.020692 -0.0173114
0.489998 -0.0133154 -0.0105684
0.565087 0.00201087 0.00411234
0.64797 0.0271452 0.0278694
0.738128 0.0618558 0.0606651
0.834333 0.1 0.1
0.165667 0.2 0.1
0.250603 0.195339 0.0794844
0.269358 0.154255 -0.010384
0.317754 0.129213 -0.0215894
0.370218 0.111372 -0.0267515
0.429658 0.104553 -0.0264061
0.495997 0.10696 -0.0190714
0.569307 0.11767 -0.00425958
0.650188 0.137376 0.0198131
0.738761 0.166748 0.05426
0.834333 0.2 0.1
0.165667 0.3 0.1
0.251178 0.307743 0.0784127
0.286678 0.293404 0.00834257
0.315841 0.254561 -0.06271
0.371635 0.238654 -0.054664
0.431891 0.228983 -0.0438114
0.498232 0.227894 -0.0302706
0.5709 0.234223 -0.0122196
0.650877 0.248672 0.0143112
0.738712 0.27245 0.0512526
0.834333 0.3 0.1
0.165667 0.4 0.1
0.252641 0.420561 0.0792741
0.294347 0.419257 0.0177112
0.333592 0.398782 -0.0407912
0.370778 0.363704 -0.090079
0.432987 0.353507 -0.0671524
0.499505 0.348749 -0.0444593
0.571951 0.350883 -0.0209499
0.651508 0.360391 0.00947377
0.73881 0.378443 0.0491228
0.834333 0.4 0.1
0.165667 0.5 0.1
0.253659 0.532187 0.0810411
0.29957 0.541512 0.0246466
0.345834 0.534568 -0.0241975
0.391035 0.514401 -0.0659064
0.43286 0.476913 -0.0951135
0.500626 0.470098 -0.061359
0.572831 0.467769 -0.0306269
0.652018 0.472218 0.00424627
0.739036 0.484694 0.0473662
0.834333 0.5 0.1
0.165667 0.6 0.1
0.25461 0.642977 0.0837366
0.303111 0.66017 0.0306356
0.354266 0.663812 -0.01314
0.406106 0.655704 -0.0466018
0.455933 0.632043 -0.0707917
0.500536 0.590334 -0.081619
0.573576 0.584926 -0.0422622
0.652372 0.584128 -0.0019618
0.739113 0.590892 0.0445781
0.834333 0.6 0.1
0.165667 0.7 0.1
0.256063 0.753217 0.0872016
0.306294 0.776331 0.0362522
0.36058 0.787238 -0.00492221
0.417406 0.788523 -0.0345409
0.473916 0.775556 -0.0522381
0.526883 0.746403 -0.0595696
0.573082 0.700502 -0.0565405
0.652779 0.696005 -0.009468
0.739202 0.697017 0.0407491
0.834333 0.7 0.1
0.165667 0.8 0.1
0.258171 0.862556 0.0906021
0.309811 0.890457 0.040961
0.366205 0.906338 0.000756301
0.426544 0.914079 -0.0272825
0.48825 0.90907 -0.0419865
0.548177 0.889232 -0.0445088
0.603492 0.854716 -0.0371927
0.651886 0.806215 -0.0189523
0.739261 0.802936 0.0355991
0.834333 0.8 0.1
0.165667 0.9 0.1
0.2603 0.969649 0.0917936
0.313921 1.00256 0.043286
0.372041 1.02201 0.00346096
0.434995 1.03402 -0.0237875
0.500546 1.0343 -0.0373523
0.565958 1.02106 -0.0376014
0.628565 0.994431 -0.0262157
0.686338 0.955365 -0.00392364
0.738352 0.907698 0.028168
0.834333 0.9 0.1
0.165667 1 0.1
0.262431 1.0744 0.0863998
0.318445 1.11136 0.0398973
0.379313 1.13459 0.0030095
0.444787 1.14955 -0.0221382
0.513426 1.15307 -0.034291
0.582995 1.14373 -0.0335193
0.65138 1.12212 -0.0203852
0.716335 1.08883 0.00376125
0.777488 1.04838 0.0333693
0.834333 1 0.1
0.165667 0 0.2
0.203137 -0.0718524 0.176402
0.232253 -0.149432 0.148095
0.28614 -0.163063 0.123559
0.344617 -0.162687 0.107551
0.409334 -0.155195 0.102444
0.480493 -0.140973 0.107052
0.558342 -0.11966 0.120161
0.643454 -0.0886112 0.141899
0.735441 -0.0462583 0.171102
0.834333 0 0.2
0.165667 0.1 0.2
0.250793 0.0861872 0.189214
0.270945 -0.00176875 0.155637
0.319055 -0.0217887 0.134497
0.371003 -0.0299896 0.116262
0.430016 -0.0295401 0.107828
0.495993 -0.0217105 0.109047
0.569045 -0.00634962 0.118841
0.649719 0.0190232 0.137149
0.738378 0.0568055 0.165084
0.834333 0.1 0.2
0.165667 0.2 0.2
0.252271 0.19881 0.193402
0.303562 0.16062 0.153819
0.343267 0.125273 0.126284
0.390485 0.107396 0.110714
0.44514 0.100042 0.102772
0.507595 0.101626 0.103443
0.577486 0.111374 0.112417
0.65468 0.13026 0.12993
0.740438 0.161971 0.158885
0.834333 0.2 0.2
0.165667 0.3 0.2
0.252271 0.310479 0.192266
0.325356 0.310192 0.176519
0.343959 0.259275 0.0880882
0.394722 0.241842 0.0878616
0.449523 0.229055 0.0889191
0.511024 0.225177 0.0942515
0.579442 0.22901 0.105095
0.655533 0.242268 0.124721
0.740163 0.267792 0.155599
0.834333 0.3 0.2
0.165667 0.4 0.2
0.253157 0.421901 0.191234
0.326908 0.430731 0.175792
0.361831 0.409646 0.110551
0.393055 0.369246 0.0516351
0.450303 0.3561 0.0665834
0.512125 0.347915 0.0809312
0.58045 0.347169 0.0972045
0.656111 0.354994 0.120415
0.74023 0.374388 0.153748
0.834333 0.4 0.2
0.165667 0.5 0.2
0.25413 0.532897 0.191867
0.330124 0.552093 0.177876
0.370907 0.543713 0.121651
0.410551 0.520295 0.0723213
0.449362 0.481223 0.0381976
0.512758 0.470988 0.064556
0.580968 0.465351 0.0879277
0.656403 0.467787 0.11553
0.740309 0.481169 0.152117
0.834333 0.5 0.2
0.165667 0.6 0.2
0.255026 0.642969 0.193487
0.333019 0.671127 0.180987
0.377727 0.672365 0.129272
0.42388 0.661599 0.0885761
0.46933 0.635412 0.0581671
0.512277 0.592988 0.0445707
0.581427 0.583962 0.0769196
0.656549 0.580715 0.109746
0.740248 0.587921 0.149528
0.834333 0.6 0.2
0.165667 0.7 0.2
0.256325 0.752186 0.195675
0.336418 0.788352 0.184605
0.38359 0.796042 0.135299
0.434456 0.794632 0.0985879
0.486177 0.779279 0.0745308
0.536076 0.748371 0.0626692
0.581244 0.701557 0.063898
0.65698 0.693768 0.102975
0.740331 0.694684 0.146087
0.834333 0.7 0.2
0.165667 0.8 0.2
0.257915 0.860099 0.197574
0.340782 0.904227 0.18813
0.389559 0.916203 0.139919
0.443464 0.920638 0.104693
0.500168 0.913422 0.0837348
0.556495 0.891838 0.0761604
0.609387 0.855429 0.0795786
0.656536 0.805761 0.0948924
0.740457 0.801338 0.141545
0.834333 0.8 0.2
0.165667 0.9 0.2
0.259503 0.965969 0.197656
0.346034 1.0182 0.189763
0.39618 1.03332 0.142426
0.45221 1.04134 0.107913
0.512427 1.03925 0.088104
0.573982 1.02441 0.0826832
0.633779 0.996068 0.0896649
0.689515 0.955669 0.107778
0.739939 0.907342 0.135398
0.834333 0.9 0.2
0.165667 1 0.2
0.260789 1.06903 0.191333
0.351569 1.12864 0.18613
0.404461 1.14733 0.142464
0.462633 1.15781 0.11012
0.525573 1.15857 0.0916503
0.591054 1.14754 0.0871306
0.656522 1.12432 0.0956647
0.719566 1.0901 0.115678
0.779293 1.04952 0.140486
0.834333 1 0.2
0.165667 0 0.3
0.210844 -0.0631776 0.295652
0.248354 -0.13173 0.282858
0.28375 -0.195286 0.244007
0.345496 -0.189965 0.231464
0.411046 -0.174786 0.224809
0.482218 -0.15471 0.22647
0.559692 -0.129467 0.235823
0.644165 -0.0955787 0.252772
0.735659 -0.0497086 0.276678
0.834333 0 0.3
0.165667 0.1 0.3
0.253429 0.0864032 0.304125
0.286424 0.0144808 0.292697
0.315749 -0.0546096 0.256518
0.372117 -0.0557367 0.243038
0.432091 -0.047509 0.232436
0.498016 -0.0340815 0.229984
0.570377 -0.0153782 0.235188
0.650139 0.0123322 0.248253
0.738057 0.0531422 0.270692
[...]
POINT_DATA 2331
SCALARS Displacements float 1
LOOKUP_TABLE default
0.165667 0.183808 0.202697 0.210847 0.214451 0.210556 0.201626 0.186418 0.169833 0.15895 0.165667 0.165667 0.147128 0.14427 0.174594 0.197606 0.210037 0.211609 0.204042 0.189608 0.174239 0.165667 0.165667 0.131781 0.170148 0.18301 0.194508 0.202561 0.204188 0.198657 0.186246 0.172316 0.165667 0.165667 0.131189 0.147026 0.211173 0.20865 0.206536 0.203735 0.197331 0.185578 0.172207 0.165667 0.165667 0.132486 0.137623 0.176381 0.234118 0.219154 0.207966 0.198055 0.185118 0.172003 0.165667 0.165667 0.13429 0.136902 0.159932 0.195925 0.240118 0.217165 0.201193 0.185795 0.171837 0.165667 0.165667 0.136148 0.139664 0.15755 0.179214 0.203632 0.23378 0.208158 0.188468 0.172568 0.165667 0.165667 0.138313 0.143994 0.16145 0.179103 0.190648 0.201219 0.220683 0.193007 0.174049 0.165667 0.165667 0.141377 0.14975 0.168605 0.186444 0.194084 0.193 0.191736 0.20141 0.176425 0.165667 0.165667 0.144337 0.156888 0.17772 0.196692 0.203971 0.198777 0.185564 0.174069 0.180963 0.165667 0.165667 0.148403 0.164655 0.187923 0.207035 0.213944 0.207092 0.188223 0.163879 0.15319 0.165667 0.165667 0.142065 0.144149 0.174813 0.197824 0.21038 0.212329 0.205173 0.190466 0.174157 0.165667 0.165667 0.141006 0.123474 0.144556 0.168666 0.185672 0.192786 0.192348 0.183368 0.170894 0.165667 0.165667 0.152065 0.138158 0.14181 0.157505 0.173311 0.183442 0.186357 0.181095 0.170868 0.165667 0.165667 0.152907 0.126324 0.169677 0.168786 0.174253 0.180351 0.183267 0.179485 0.170731 0.165667 0.165667 0.155408 0.126664 0.144748 0.195707 0.18599 0.183288 0.18286 0.178364 0.170398 0.165667 0.165667 0.158135 0.131589 0.136824 0.166771 0.207629 0.191849 0.185133 0.178436 0.170041 0.165667 0.165667 0.161295 0.138072 0.140774 0.156947 0.179272 0.207297 0.190916 0.180117 0.170409 0.165667 0.165667 0.165383 0.145563 0.149295 0.161989 0.171946 0.181554 0.201528 0.183502 0.171393 0.165667 0.165667 0.170351 0.154034 0.159813 0.172972 0.179428 0.177569 0.176435 0.190069 0.173185 0.165667 0.165667 0.17497 0.163438 0.171454 0.185767 0.192103 0.186409 0.173063 0.163659 0.177057 0.165667 0.165667 0.179175 0.173329 0.183879 0.198212 0.204067 0.196915 0.178239 0.15541 0.147613 0.165667 0.165667 0.127894 0.161445 0.180624 0.195143 0.204507 0.206869 0.20189 0.189035 0.173362 0.165667 0.165667 0.151808 0.13175 0.139593 0.157322 0.173707 0.184129 0.187206 0.181912 0.170899 0.165667 0.165667 0.152419 0.120036 0.113535 0.128989 0.149849 0.16595 0.174743 0.175759 0.169105 0.165667 0.165667 0.152827 0.127943 0.126946 0.126433 0.141138 0.157156 0.169059 0.172831 0.168988 0.165667 0.165667 0.154963 0.132801 0.109166 0.151678 0.148986 0.156883 0.166283 0.17048 0.168291 0.165667 0.165667 0.157811 0.141899 0.114356 0.129711 0.170578 0.1637 0.167121 0.169685 0.167776 0.165667 0.165667 0.161002 0.152035 0.127595 0.129537 0.14937 0.178613 0.171655 0.170575 0.16797 0.165667 0.165667 0.164863 0.163257 0.14282 0.142923 0.14906 0.159015 0.180636 0.172937 0.168609 0.165667 0.165667 0.168982 0.175567 0.158536 0.159769 0.162426 0.160197 0.160575 0.17794 0.16992 0.165667 0.165667 0.172623 0.188155 0.17418 0.176585 0.179066 0.17297 0.160587 0.154308 0.172762 0.165667 0.165667 0.175193 0.199282 0.189549 0.192107 0.193746 0.18598 0.16802 0.147304 0.143402 0.165667 0.165667 0.127658 0.141367 0.203804 0.209176 0.210039 0.207881 0.201412 0.188813 0.173271 0.165667 0.165667 0.154085 0.121803 0.161378 0.168155 0.175885 0.182431 0.185243 0.181168 0.171114 0.165667 0.165667 0.152669 0.126749 0.118096 0.124755 0.14165 0.158164 0.170081 0.173735 0.169316 0.165667 0.165667 0.153444 0.126039 0.0896151 0.0941234 0.114123 0.138033 0.15647 0.16575 0.16674 0.165667 0.165667 0.154588 0.129552 0.0972457 0.10424 0.109622 0.130083 0.149962 0.162417 0.166035 0.165667 0.165667 0.157088 0.137508 0.111825 0.0871781 0.12856 0.133453 0.148674 0.160536 0.165295 0.165667 0.165667 0.16017 0.147736 0.132789 0.105231 0.113237 0.147073 0.151489 0.160441 0.165106 0.165667 0.165667 0.163797 0.15886 0.154081 0.131053 0.124547 0.133603 0.159366 0.161978 0.165487 0.165667 0.165667 0.167526 0.170491 0.17487 0.155778 0.147346 0.141933 0.144407 0.165741 0.166417 0.165667 0.165667 0.170783 0.181475 0.195031 0.178196 0.169913 0.160424 0.148882 0.146136 0.168518 0.165667 0.165667 0.173009 0.190969 0.213878 0.198009 0.188584 0.177027 0.159469 0.141138 0.140645 0.165667 0.165667 0.129456 0.132325 0.172469 0.229618 0.223047 0.213987 0.203587 0.189259 0.173261 0.165667 0.165667 0.156094 0.122946 0.140315 0.189956 0.188342 0.187362 0.186452 0.181025 0.170996 0.165667 0.165667 0.154659 0.132974 0.103484 0.14437 0.149704 0.159253 0.168483 0.172197 0.168804 0.165667 0.165667 0.154438 0.128836 0.0946059 0.0942299 0.108391 0.130925 0.150989 0.163259 0.166276 0.165667 0.165667 0.155359 0.131387 0.0939744 0.0500839 0.0776783 0.107768 0.136595 0.155333 0.163469 0.165667 0.165667 0.157164 0.136796 0.105574 0.0723972 0.0828198 0.102658 0.130866 0.151954 0.162891 0.165667 0.165667 0.160008 0.145895 0.124729 0.103973 0.0750917 0.113332 0.131365 0.150895 0.162429 0.165667 0.165667 0.163388 0.156395 0.146238 0.139254 0.108767 0.106107 0.138003 0.151618 0.16256 0.165667 0.165667 0.166988 0.167488 0.167161 0.170828 0.144309 0.126506 0.128138 0.15472 0.163192 0.165667 0.165667 0.169875 0.177615 0.186665 0.198691 0.174325 0.153529 0.138426 0.138527 0.164659 0.165667 0.165667 0.171792 0.186334 0.20422 0.224046 0.198723 0.175456 0.153542 0.135968 0.138661 0.165667 0.165667 0.131141 0.132008 0.156391 0.194076 0.239264 0.223355 0.207898 0.190948 0.173397 0.165667 0.165667 0.158762 0.128503 0.132281 0.163586 0.20587 0.196603 0.190293 0.182189 0.171004 0.165667 0.165667 0.157428 0.141522 0.109452 0.125461 0.167707 0.167108 0.170927 0.172559 0.168648 0.165667 0.165667 0.156945 0.136393 0.110773 0.0802037 0.124027 0.134838 0.150837 0.162244 0.16578 0.165667 0.165667 0.157119 0.136375 0.103926 0.0674804 0.0747642 0.101996 0.131612 0.152721 0.163091 0.165667 0.165667 0.15836 0.13969 0.109599 0.0664945 0.0167037 0.0798137 0.117208 0.145687 0.161022 0.165667 0.165667 0.160825 0.14706 0.12326 0.0927837 0.0702678 0.0801296 0.113297 0.142564 0.160133 0.165667 0.165667 0.164067 0.156679 0.142309 0.125732 0.114999 0.0832518 0.117744 0.142135 0.159979 0.165667 0.165667 0.16737 0.16697 0.162039 0.15787 0.159273 0.122235 0.112687 0.14462 0.160331 0.165667 0.165667 0.17005 0.176581 0.180767 0.186385 0.196314 0.159623 0.13187 0.13116 0.161416 0.165667 0.165667 0.171451 0.184034 0.197224 0.211762 0.227592 0.188636 0.153775 0.131859 0.1367 0.165667 0.165667 0.132814 0.134975 0.153708 0.17772 0.204124 0.235466 0.214098 0.193725 0.174061 0.165667 0.165667 0.162022 0.134933 0.136045 0.154188 0.178248 0.20915 0.196038 0.184483 0.171638 0.165667 0.165667 0.160946 0.152036 0.123722 0.125319 0.14736 0.180178 0.175873 0.174244 0.169016 0.165667 0.165667 0.160409 0.146618 0.131653 0.10063 0.110532 0.147923 0.154537 0.163142 0.165926 0.165667 0.165667 0.160346 0.145676 0.123026 0.102789 0.0694713 0.113137 0.132734 0.152426 0.162867 0.165667 0.165667 0.161035 0.146893 0.122725 0.0904771 0.0655378 0.0778003 0.113116 0.143059 0.160276 0.165667 0.165667 0.162595 0.151312 0.129397 0.0988419 0.0609316 0.0492868 0.102487 0.136818 0.158796 0.165667 0.165667 0.165675 0.159487 0.144312 0.121499 0.0975629 0.0887529 0.101455 0.134616 0.157841 0.165667 0.165667 0.168606 0.168708 0.161656 0.149584 0.13897 0.134012 0.103393 0.136281 0.157807 0.165667 0.165667 0.171096 0.177366 0.178864 0.176676 0.177144 0.179712 0.134998 0.124713 0.158593 0.165667 0.165667 0.172034 0.183806 0.194308 0.201714 0.210317 0.217542 0.165931 0.130829 0.134303 0.165667 0.165667 0.134905 0.139534 0.157699 0.177124 0.190958 0.204051 0.223717 0.197654 0.175343 0.165667 0.165667 0.166131 0.142246 0.144645 0.15903 0.171289 0.183401 0.205295 0.18802 0.172785 0.165667 0.165667 0.165353 0.164103 0.139506 0.139112 0.147391 0.160043 0.184933 0.176934 0.169749 0.165667 0.165667 0.164707 0.158581 0.15426 0.128426 0.122197 0.134414 0.163726 0.165325 0.166546 0.165667 0.165667 0.16446 0.157109 0.145102 0.138986 0.106771 0.106881 0.141939 0.154074 0.163352 0.165667 0.165667 0.164935 0.157223 0.142371 0.124427 0.116346 0.0818003 0.120858 0.143449 0.16043 0.165667 0.165667 0.166195 0.159771 0.144131 0.121437 0.096625 0.0872806 0.102718 0.134803 0.157934 0.165667 0.165667 0.167978 0.164715 0.152111 0.130303 0.103572 0.078023 0.0904627 0.131287 0.156557 0.165667 0.165667 0.170503 0.172491 0.165736 0.151009 0.130692 0.111671 0.110927 0.130589 0.155982 0.165667 0.165667 0.17251 0.179703 0.180449 0.17426 0.163867 0.154029 0.149219 0.121715 0.156707 0.165667 0.165667 0.173011 0.18508 0.194122 0.197504 0.196369 0.194096 0.190668 0.136655 0.131406 0.165667 0.165667 0.137888 0.145954 0.165193 0.184366 0.193446 0.194406 0.195891 0.204498 0.17745 0.165667 0.165667 0.171104 0.150947 0.155473 0.17011 0.178405 0.178841 0.180457 0.19435 0.174693 0.165667 0.165667 0.170324 0.177414 0.155828 0.156489 0.160707 0.160698 0.163926 0.182655 0.171283 0.165667 0.165667 0.169386 0.171537 0.176966 0.154208 0.145623 0.142361 0.14763 0.171001 0.167848 0.165667 0.165667 0.168955 0.169545 0.167651 0.172866 0.143986 0.126909 0.131582 0.159936 0.164463 0.165667 0.165667 0.169166 0.168774 0.163561 0.157865 0.162013 0.123088 0.116233 0.149446 0.161418 0.165667 0.165667 0.169946 0.169813 0.162389 0.150746 0.140236 0.139681 0.104981 0.140192 0.158568 0.165667 0.165667 0.171291 0.173181 0.166081 0.151251 0.132156 0.114156 0.11295 0.132721 0.15617 0.165667 0.165667 0.172704 0.177789 0.173897 0.161564 0.141096 0.11678 0.100368 0.125741 0.155984 0.165667 0.165667 0.174486 0.183656 0.185722 0.179256 0.164961 0.143874 0.125001 0.125652 0.155308 0.165667 0.165667 0.17452 0.18775 0.197159 0.199498 0.193616 0.179888 0.163775 0.149896 0.128168 0.165667 0.165667 0.141272 0.154093 0.17508 0.194653 0.2025 0.198422 0.186888 0.178143 0.180922 0.165667 0.165667 0.175568 0.160707 0.167796 0.183131 0.190606 0.18649 0.174772 0.167424 0.178093 0.165667 0.165667 0.174885 0.190998 0.172405 0.173897 0.177213 0.17259 0.161784 0.157322 0.174252 0.165667 0.165667 0.173592 0.184427 0.199233 0.177622 0.168545 0.160269 0.150159 0.148869 0.170566 0.165667 0.165667 0.17276 0.181549 0.189439 0.203657 0.174864 0.153879 0.14031 0.141468 0.167272 0.165667 0.165667 0.172691 0.179993 0.184371 0.188863 0.201983 0.16128 0.134235 0.1346 0.164403 0.165667 0.165667 0.173141 0.179927 0.181477 0.180096 0.180448 0.18739 0.137989 0.128326 0.161643 0.165667 0.165667 0.174056 0.1816 0.18215 0.176386 0.16803 0.160255 0.159354 0.124617 0.159385 0.165667 0.165667 0.175214 0.184772 0.186961 0.180502 0.166913 0.147898 0.130838 0.131155 0.157151 0.165667 0.165667 0.176334 0.188622 0.194417 0.191271 0.179771 0.157938 0.13107 0.11611 0.150903 0.165667 0.165667 0.175849 0.191559 0.203548 0.207957 0.202849 0.186171 0.158581 0.130144 0.126786 0.165667 0.165667 0.146758 0.164306 0.187363 0.205882 0.211922 0.2052 0.187596 0.164952 0.153191 0.165667 0.165667 0.179543 0.171895 0.181734 0.196567 0.20235 0.195558 0.177532 0.155106 0.146396 0.165667 0.165667 0.177893 0.202396 0.188757 0.190409 0.191999 0.18456 0.167276 0.146548 0.141666 0.165667 0.165667 0.176112 0.195401 0.219861 0.198663 0.18776 0.176254 0.159196 0.14037 0.138867 0.165667 0.165667 0.174861 0.191645 0.209597 0.231899 0.200343 0.175734 0.154168 0.135674 0.136972 0.165667 0.165667 0.174411 0.189155 0.203634 0.217493 0.236956 0.190946 0.155289 0.132203 0.135305 0.165667 0.165667 0.174496 0.188184 0.199764 0.208294 0.217103 0.228622 0.168858 0.131551 0.133603 0.165667 0.165667 0.175014 0.188792 0.198778 0.202985 0.20414 0.20324 0.203098 0.138985 0.131888 0.165667 0.165667 0.176016 0.191023 0.201387 0.203894 0.199365 0.188152 0.174035 0.162563 0.130455 0.165667 0.165667 0.176598 0.193563 0.206279 0.21077 0.205903 0.19022 0.164905 0.136349 0.13412 0.165667 0.165667 0.174519 0.193866 0.21127 0.22172 0.222517 0.211511 0.185972 0.14974 0.123302 0.165667 0.17884 0.153142 0.170576 0.186843 0.197263 0.199141 0.194852 0.183338 0.169487 0.161924 0.163185 0.140357 0.142718 0.165877 0.185197 0.196288 0.198339 0.191743 0.179101 0.168343 0.162497 0.128878 0.169379 0.175883 0.18412 0.190997 0.193085 0.188246 0.177383 0.167623 0.163205 0.128791 0.146576 0.203376 0.19717 0.194478 0.192675 0.187047 0.176939 0.167718 0.163802 0.131573 0.137548 0.171791 0.220828 0.205117 0.195921 0.187448 0.176559 0.167747 0.164495 0.135355 0.138738 0.158303 0.187421 0.223369 0.20346 0.189869 0.177126 0.167731 0.165425 0.139693 0.14412 0.159427 0.175209 0.192103 0.216959 0.195093 0.17896 0.16797 0.166672 0.144819 0.151505 0.16694 0.178954 0.183668 0.188183 0.204191 0.182157 0.168403 0.16795 0.151071 0.160361 0.177129 0.189198 0.190064 0.182694 0.176887 0.187511 0.169148 0.168958 0.15768 0.170517 0.188281 0.200648 0.20062 0.188584 0.170267 0.160006 0.169385 0.164144 0.137276 0.142174 0.165774 0.185347 0.196712 0.199127 0.192809 0.179628 0.168673 0.163446 0.135334 0.117684 0.135792 0.158559 0.175091 0.182996 0.18323 0.175136 0.166869 0.164166 0.142702 0.130032 0.132938 0.148274 0.164306 0.175367 0.178733 0.174041 0.167252 0.164419 0.144465 0.116143 0.158745 0.158052 0.164612 0.172384 0.17598 0.172946 0.167443 0.164889 0.149465 0.118706 0.135512 0.181998 0.173979 0.174231 0.175344 0.172171 0.167503 0.165456 0.155171 0.127727 0.131298 0.156617 0.192102 0.180805 0.176904 0.17236 0.167497 0.166227 0.161797 0.138665 0.140145 0.151497 0.167822 0.192796 0.180969 0.173532 0.16767 0.167128 0.169594 0.15051 0.153261 0.161068 0.164935 0.16981 0.188243 0.17591 0.167998 0.168023 0.178175 0.162983 0.167461 0.175413 0.175555 0.168252 0.164121 0.179676 0.168626 0.168581 0.185893 0.175922 0.181638 0.189698 0.188933 0.176966 0.159605 0.152577 0.168331 0.163847 0.125945 0.161457 0.17421 0.185214 0.193063 0.195578 0.190965 0.17916 0.168815 0.16397 0.142093 0.12424 0.131176 0.148456 0.165002 0.176251 0.179691 0.174682 0.167673 0.163955 0.14223 0.109905 0.101899 0.119447 0.142373 0.159943 0.169187 0.170227 0.166804 0.164012 0.143832 0.114052 0.111989 0.115823 0.133736 0.152149 0.164662 0.168563 0.167284 0.164471 0.147953 0.121933 0.0943961 0.137281 0.13944 0.151276 0.162308 0.167122 0.167268 0.165084 0.153712 0.136267 0.106136 0.118241 0.156797 0.156118 0.162652 0.166712 0.167202 0.165853 0.160272 0.151735 0.126384 0.124064 0.13901 0.167234 0.165676 0.16739 0.167361 0.166719 0.167627 0.167829 0.147186 0.14302 0.143428 0.14975 0.171462 0.169094 0.167604 0.167526 0.175006 0.184322 0.166985 0.163592 0.160174 0.153158 0.151732 0.171637 0.168149 0.167978 0.181518 0.200458 0.185485 0.182168 0.177617 0.165666 0.150047 0.146617 0.16727 0.164068 0.125672 0.141777 0.196807 0.198544 0.198365 0.196766 0.190732 0.179054 0.168913 0.164358 0.145239 0.112038 0.151864 0.157999 0.166663 0.174619 0.177975 0.174135 0.168058 0.164065 0.143444 0.112338 0.104409 0.114437 0.134502 0.153238 0.165673 0.169163 0.167617 0.164141 0.144615 0.111361 0.0741128 0.0825312 0.108157 0.135519 0.154735 0.163849 0.166743 0.164364 0.147244 0.117973 0.0834808 0.0888209 0.103101 0.128512 0.149835 0.16215 0.166984 0.164941 0.152327 0.130631 0.104957 0.0751743 0.117414 0.130349 0.148634 0.161125 0.166891 0.165681 0.158579 0.146194 0.133495 0.102699 0.10552 0.140104 0.150369 0.161223 0.166933 0.166538 0.165584 0.162276 0.160614 0.134956 0.122436 0.128125 0.155204 0.162395 0.167117 0.167247 0.172341 0.178073 0.185602 0.163466 0.148677 0.138282 0.139632 0.163927 0.16758 0.167606 0.178257 0.192654 0.20905 0.187843 0.17205 0.156228 0.141529 0.141809 0.166248 0.164666 0.128696 0.132562 0.168101 0.217497 0.209559 0.20177 0.192435 0.179288 0.16893 0.164911 0.149514 0.114952 0.13151 0.17783 0.17685 0.178302 0.178773 0.17402 0.168176 0.164614 0.147242 0.121677 0.0887108 0.132043 0.140462 0.153644 0.164381 0.168241 0.167667 0.164478 0.146939 0.116816 0.0794207 0.0809659 0.102142 0.129364 0.150778 0.16265 0.167138 0.164641 0.148694 0.120497 0.0791476 0.0327785 0.0744298 0.110394 0.140158 0.158023 0.166369 0.165078 0.152683 0.129437 0.0971715 0.0662017 0.0759596 0.105745 0.135878 0.156162 0.166531 0.1658 0.15844 0.143228 0.12336 0.105652 0.0732563 0.112615 0.135859 0.155694 0.166514 0.166578 0.164958 0.158399 0.150788 0.146963 0.11221 0.106065 0.139646 0.156353 0.166651 0.167249 0.17142 0.173535 0.176063 0.182341 0.15026 0.127061 0.127822 0.157261 0.167054 0.16748 0.176562 0.187059 0.198942 0.212759 0.180968 0.152985 0.134352 0.1374 0.16532 0.165394 0.132182 0.133692 0.154838 0.185712 0.22369 0.209373 0.19576 0.180472 0.168952 0.165635 0.155243 0.12448 0.126943 0.153864 0.191823 0.185395 0.181535 0.17482 0.168231 0.165352 0.152837 0.135429 0.101522 0.114749 0.155693 0.159384 0.166055 0.168583 0.167742 0.165203 0.152036 0.129072 0.103826 0.0680712 0.115137 0.131743 0.150542 0.162165 0.167118 0.165209 0.15256 0.128896 0.0949494 0.0596902 0.071344 0.105331 0.136495 0.156574 0.166559 0.165452 0.15505 0.133721 0.10213 0.0590715 0.0284491 0.0891373 0.126857 0.152846 0.166283 0.166162 0.160022 0.144709 0.120479 0.0920441 0.0748022 0.0881484 0.123817 0.151139 0.166121 0.16686 0.166024 0.158283 0.144583 0.130619 0.121645 0.090154 0.126002 0.151086 0.166231 0.167489 0.171911 0.172254 0.168541 0.166701 0.168163 0.126779 0.11721 0.151393 0.166583 0.167616 0.176483 0.185007 0.190789 0.198045 0.206618 0.162438 0.130876 0.132951 0.16453 0.166324 0.136199 0.139159 0.155669 0.173824 0.193054 0.219614 0.200687 0.182463 0.169101 0.166585 0.162252 0.135529 0.135769 0.149065 0.167513 0.195689 0.185768 0.176346 0.168424 0.166301 0.159881 0.151642 0.123168 0.12061 0.138043 0.169945 0.169644 0.169787 0.167893 0.166136 0.158842 0.144785 0.13271 0.0990622 0.104119 0.142197 0.153246 0.162946 0.167254 0.166139 0.158793 0.142985 0.121541 0.105679 0.0680231 0.113678 0.137289 0.15663 0.166596 0.166306 0.160232 0.144484 0.120094 0.0898655 0.0699247 0.0875052 0.12387 0.151366 0.166041 0.166616 0.163311 0.150658 0.128044 0.0983319 0.065382 0.0701876 0.117118 0.148449 0.166038 0.167308 0.1686 0.161689 0.146282 0.124176 0.102129 0.0966906 0.115967 0.147151 0.165882 0.167823 0.173655 0.173904 0.167096 0.155739 0.145483 0.139853 0.111563 0.14697 0.166219 0.167861 0.177638 0.185293 0.187683 0.186019 0.185253 0.184804 0.135711 0.128784 0.163761 0.167464 0.141301 0.146801 0.163303 0.177198 0.184297 0.191511 0.207982 0.185446 0.169398 0.167694 0.170533 0.147518 0.149199 0.158553 0.164642 0.172169 0.192484 0.178921 0.168732 0.167373 0.168109 0.169071 0.144759 0.140138 0.142572 0.151534 0.176109 0.171863 0.168092 0.167175 0.166798 0.162037 0.161648 0.133398 0.121248 0.129793 0.159722 0.164724 0.167454 0.167134 0.166269 0.159299 0.149905 0.148237 0.111067 0.107462 0.143541 0.158144 0.16682 0.167227 0.16696 0.158817 0.145043 0.130245 0.125184 0.088168 0.128624 0.152142 0.166249 0.167457 0.16915 0.161947 0.146258 0.124809 0.102327 0.0953483 0.116561 0.147333 0.165743 0.167704 0.172326 0.168429 0.155596 0.134018 0.10792 0.0866057 0.109326 0.145279 0.166019 0.168271 0.176534 0.178448 0.171651 0.156968 0.13604 0.116707 0.116447 0.143976 0.165851 0.168199 0.179637 0.18798 0.189476 0.18341 0.171356 0.158447 0.148904 0.126012 0.163174 0.168447 0.147605 0.15634 0.173814 0.187198 0.189675 0.184204 0.180801 0.189594 0.16985 0.168718 0.179553 0.160494 0.163835 0.172903 0.174734 0.169383 0.167482 0.182475 0.169183 0.168343 0.176759 0.187084 0.165343 0.16122 0.159164 0.153933 0.154556 0.174803 0.168474 0.168047 0.174897 0.179587 0.189037 0.162968 0.148007 0.139324 0.142385 0.167499 0.167819 0.167951 0.173914 0.176097 0.177267 0.186251 0.150813 0.128296 0.130708 0.160842 0.167169 0.167987 0.173974 0.17431 0.170864 0.168161 0.173534 0.128206 0.119828 0.154581 0.166639 0.168129 0.175149 0.175188 0.16844 0.158344 0.149092 0.147902 0.111949 0.149142 0.166199 0.168331 0.177353 0.1793 0.172384 0.158046 0.138827 0.120459 0.118986 0.144507 0.165671 0.168503 0.180073 0.185489 0.181867 0.169867 0.1486 0.122659 0.106771 0.139837 0.165011 0.168403 0.182478 0.193129 0.196347 0.190557 0.175091 0.150676 0.126814 0.1256