# vtk DataFile Version 5.1
vtk output
ASCII

DATASET UNSTRUCTURED_GRID
POINTS 56791 float
0.174 0 0
0.174 -0.0439072 -0.0429634
0.239903 -0.0885834 -0.0879342
0.326933 -0.107472 -0.106757
0.413919 -0.116643 -0.115793
0.500786 -0.119395 -0.118328
0.587884 -0.116418 -0.115008
0.676168 -0.10658 -0.104412
0.768734 -0.0835556 -0.0782566
0.77479 -0.00431543 -0.0264198
0.826 0 0
0.174 0.1 0
0.200417 0.0545513 -0.0668069
0.266794 0.020322 -0.0980788
0.342332 0.00233307 -0.111968
0.420866 -0.00638303 -0.119282
0.500337 -0.00902484 -0.121424
0.579736 -0.00640252 -0.118817
0.657859 0.00254072 -0.111162
0.731852 0.0229125 -0.0971969
0.798824 0.0600474 -0.0642592
0.826 0.1 0
0.174 0.2 0
0.205427 0.169215 -0.0713586
0.277728 0.141073 -0.10497
0.351541 0.123012 -0.120085
0.425643 0.113737 -0.127096
0.499892 0.110997 -0.129088
0.574015 0.114112 -0.126809
0.647762 0.124169 -0.119474
0.721566 0.143568 -0.103394
0.795082 0.1725 -0.068727
0.826 0.2 0
0.174 0.3 0
0.20548 0.279407 -0.0721405
0.279219 0.261168 -0.108592
0.353947 0.248037 -0.126109
0.427272 0.240593 -0.134207
0.499759 0.238361 -0.136503
0.572219 0.241059 -0.133952
0.645593 0.249063 -0.125489
0.720607 0.262715 -0.10716
0.795381 0.282048 -0.0700093
0.826 0.3 0
0.174 0.4 0
0.204669 0.389577 -0.0727177
0.278738 0.380475 -0.110759
0.353956 0.37376 -0.129668
0.427432 0.369808 -0.138646
0.499728 0.368638 -0.14124
0.572059 0.370171 -0.138455
0.645669 0.374478 -0.129168
0.721277 0.381514 -0.109524
0.796513 0.391775 -0.0707276
0.826 0.4 0
0.174 0.5 0
0.204286 0.499708 -0.0727253
0.278373 0.499601 -0.11135
0.353746 0.499488 -0.130752
0.427357 0.499508 -0.140063
0.499753 0.499609 -0.142797
0.572154 0.499791 -0.139945
0.645873 0.500048 -0.130415
0.721609 0.500296 -0.110347
0.797049 0.502045 -0.0711917
0.826 0.5 0
0.174 0.6 0
0.204634 0.609709 -0.0719312
0.278568 0.618586 -0.110218
0.353848 0.625108 -0.129337
0.427424 0.629034 -0.13845
0.499815 0.630475 -0.141121
0.572221 0.629363 -0.138367
0.645796 0.625673 -0.129095
0.721192 0.619241 -0.109458
0.796229 0.611497 -0.0713299
0.826 0.6 0
0.174 0.7 0
0.205304 0.719425 -0.0705098
0.278973 0.737422 -0.107646
0.353858 0.750401 -0.125559
0.427345 0.757934 -0.133905
0.499968 0.760519 -0.136309
0.572579 0.758352 -0.133776
0.645957 0.751081 -0.125279
0.720852 0.738323 -0.106946
0.795654 0.721724 -0.0707656
0.826 0.7 0
0.174 0.8 0
0.205437 0.829406 -0.0689189
0.277899 0.856689 -0.103721
0.351925 0.874768 -0.119586
0.426007 0.884426 -0.126864
0.500213 0.887591 -0.128945
0.574391 0.884959 -0.126605
0.648379 0.875817 -0.119062
0.722235 0.858067 -0.102903
0.795611 0.831855 -0.0697177
0.826 0.8 0
0.174 0.9 0
0.201828 0.940162 -0.067145
0.269536 0.976378 -0.0977887
0.343993 0.9954 -0.11196
0.421628 1.00475 -0.119226
0.500427 1.00767 -0.121383
0.579272 1.00528 -0.118803
0.657017 0.996672 -0.11103
0.731322 0.978341 -0.0969267
0.800777 0.94409 -0.0680271
0.826 0.9 0
0.174 1 0
0.174 1.05127 -0.0562887
0.245417 1.08835 -0.0890495
0.329193 1.10631 -0.106961
0.414617 1.11561 -0.115763
0.500404 1.1186 -0.118349
0.586274 1.11602 -0.115298
0.672064 1.10736 -0.105755
0.757633 1.08925 -0.0869017
0.826 1.02733 -0.0463762
0.826 1 0
0.174 0 0.1
0.200095 -0.0656849 0.055829
0.266476 -0.0984078 0.0209127
0.342193 -0.112497 0.00301074
0.420796 -0.119939 -0.00554145
0.500341 -0.122202 -0.00797977
0.579945 -0.119668 -0.00511017
0.658786 -0.111659 0.00395228
0.734808 -0.0954461 0.0224761
0.79964 -0.0643601 0.059898
0.826 0 0.1
0.174 0.1 0.1
0.246153 0.0502616 0.050484
0.296933 0.0165978 0.0170044
0.358907 0.000518272 0.00108084
0.428276 -0.00717456 -0.00649279
0.500046 -0.00947313 -0.00867064
0.571683 -0.00704496 -0.00613709
0.640256 0.00106958 0.00191376
0.70043 0.019051 0.0189309
0.752542 0.0541303 0.0536468
0.826 0.1 0.1
0.174 0.2 0.1
0.251445 0.168186 0.0458587
0.30916 0.140637 0.010672
0.369378 0.123591 -0.00621018
0.433632 0.114951 -0.0138079
0.49969 0.112437 -0.0159167
0.56562 0.115368 -0.0134969
0.629521 0.124702 -0.00544519
0.68955 0.142627 0.0123701
0.748269 0.169555 0.0485821
0.826 0.2 0.1
0.174 0.3 0.1
0.252058 0.279771 0.0433204
0.311707 0.261693 0.00603281
0.372771 0.249188 -0.0125512
0.435818 0.242187 -0.0210356
0.499614 0.240106 -0.0234088
0.563376 0.242648 -0.02079
0.626316 0.250109 -0.0119752
0.687372 0.26293 0.007302
0.747654 0.280195 0.0457364
0.826 0.3 0.1
0.174 0.4 0.1
0.252031 0.39018 0.0417775
0.311994 0.380979 0.00315443
0.373418 0.374523 -0.0165282
0.436364 0.370776 -0.0257211
0.499629 0.369693 -0.0283602
0.562871 0.371149 -0.025569
0.625766 0.375199 -0.0161674
0.687142 0.381748 0.0040474
0.747536 0.390194 0.0438789
0.826 0.4 0.1
0.174 0.5 0.1
0.251901 0.50029 0.0413555
0.311948 0.499619 0.00231516
0.373476 0.499446 -0.0177673
0.436431 0.49951 -0.0272426
0.499675 0.499629 -0.0299999
0.56289 0.499823 -0.027158
0.625757 0.499992 -0.0175539
0.687202 0.50019 0.00296622
0.747516 0.500233 0.0432318
0.826 0.5 0.1
0.174 0.6 0.1
0.251868 0.610255 0.0420442
0.311941 0.618145 0.00357723
0.373402 0.624365 -0.0162156
0.436397 0.628152 -0.0255011
0.499735 0.629557 -0.0282035
0.563022 0.628475 -0.0254377
0.625895 0.624856 -0.0160435
0.687216 0.618667 0.00414846
0.74756 0.610229 0.0438536
0.826 0.6 0.1
0.174 0.7 0.1
0.251648 0.720427 0.0438312
0.311623 0.736989 0.00683097
0.372839 0.74931 -0.011976
0.435999 0.756408 -0.0206432
0.499863 0.758926 -0.0231165
0.563684 0.756772 -0.0205331
0.626712 0.749954 -0.011734
0.687649 0.737772 0.00745586
0.747658 0.720568 0.0457009
0.826 0.7 0.1
0.174 0.8 0.1
0.250918 0.831465 0.0465191
0.30937 0.857278 0.0117698
0.369839 0.874327 -0.00545606
0.434104 0.883401 -0.0132935
0.500066 0.886297 -0.0155143
0.566007 0.883904 -0.0130937
0.630132 0.875419 -0.0050254
0.690271 0.858515 0.0126187
0.748455 0.832255 0.0485411
0.826 0.8 0.1
0.174 0.9 0.1
0.246219 0.947438 0.0504557
0.298722 0.980545 0.0182142
0.36029 0.997516 0.00192768
0.428967 1.0057 -0.00589466
0.500271 1.00834 -0.00816741
0.57151 1.00599 -0.00561767
0.640302 0.998521 0.00253469
0.7018 0.982354 0.0192666
0.754004 0.949709 0.0523801
0.826 0.9 0.1
0.174 1 0.1
0.199473 1.06751 0.0552446
0.269093 1.09634 0.0224254
0.343707 1.1112 0.00393509
0.421391 1.11902 -0.00488667
0.500212 1.12157 -0.00744384
0.579043 1.11945 -0.00455433
0.656927 1.11218 0.0046419
0.731849 1.09801 0.0233107
0.799484 1.0675 0.0594314
0.826 1 0.1
0.174 0 0.2
0.205244 -0.0715657 0.169064
0.277519 -0.105309 0.141375
0.351416 -0.120501 0.123572
0.425594 -0.127583 0.114471
0.500015 -0.129616 0.111846
0.574442 -0.127295 0.114949
0.648702 -0.119728 0.124674
0.722808 -0.103206 0.143324
0.795604 -0.067515 0.172616
0.826 0 0.2
0.174 0.1 0.2
0.251458 0.045699 0.168242
0.309086 0.0102836 0.140949
0.369334 -0.00669113 0.124097
0.433631 -0.0143561 0.115577
0.499798 -0.0165182 0.113135
0.565839 -0.014136 0.116049
0.629898 -0.00603672 0.12518
0.689834 0.0120347 0.142713
0.748145 0.0488238 0.169517
0.826 0.1 0.2
0.174 0.2 0.2
0.25742 0.165309 0.1654
0.322161 0.13673 0.13704
0.380776 0.119006 0.119462
0.439709 0.110112 0.11065
0.499571 0.107572 0.10815
0.559366 0.110522 0.111091
0.618306 0.119927 0.120397
0.677096 0.13811 0.138392
0.742464 0.166384 0.166466
0.826 0.2 0.2
0.174 0.3 0.2
0.258161 0.278219 0.163239
0.325231 0.259754 0.133227
0.384648 0.246853 0.114457
0.442206 0.239654 0.104962
0.49957 0.237495 0.10222
0.556932 0.240015 0.105309
0.614598 0.247517 0.115158
0.67426 0.260539 0.134244
0.741701 0.278583 0.16411
0.826 0.3 0.2
0.174 0.4 0.2
0.258245 0.389441 0.161823
0.325838 0.380253 0.130695
0.385595 0.373635 0.111046
0.442914 0.369815 0.101008
0.499601 0.368649 0.0980463
0.556338 0.370087 0.101248
0.613719 0.374072 0.111536
0.673623 0.380609 0.131438
0.741561 0.389444 0.162508
0.826 0.4 0.2
0.174 0.5 0.2
0.258192 0.500043 0.16139
0.325892 0.499757 0.129901
0.385735 0.499603 0.109948
0.443028 0.499594 0.0996993
0.499616 0.499638 0.0966408
0.556221 0.499783 0.0998601
0.613592 0.499881 0.110289
0.673606 0.499957 0.13047
0.741563 0.500036 0.161916
0.826 0.5 0.2
0.174 0.6 0.2
0.258125 0.610629 0.161994
0.325751 0.619153 0.130963
0.385589 0.625508 0.111326
0.442991 0.629298 0.101244
0.499717 0.630624 0.0982355
0.556457 0.629509 0.101385
0.613843 0.625799 0.111632
0.673748 0.619323 0.131481
0.741637 0.610613 0.162453
0.826 0.6 0.2
0.174 0.7 0.2
0.257945 0.721496 0.163533
0.325098 0.739252 0.133758
0.384708 0.751916 0.114985
0.442426 0.759211 0.105408
0.499872 0.761635 0.102574
0.557306 0.759478 0.105581
0.61491 0.752356 0.115338
0.674511 0.739677 0.134309
0.741865 0.721761 0.163997
0.826 0.7 0.2
0.174 0.8 0.2
0.257113 0.833648 0.165692
0.322229 0.861445 0.137724
0.381135 0.879321 0.120193
0.440161 0.888381 0.111255
0.500061 0.89131 0.108647
0.559897 0.888883 0.111497
0.618935 0.879956 0.120664
0.677796 0.862449 0.138427
0.742913 0.834383 0.166256
0.826 0.8 0.2
0.174 0.9 0.2
0.251535 0.951382 0.168053
0.309728 0.98737 0.141694
0.370022 1.00505 0.124985
0.434178 1.01324 0.116335
0.50017 1.01555 0.113782
0.566181 1.01344 0.116618
0.630426 1.00574 0.125579
0.690805 0.988619 0.142599
0.748972 0.953491 0.168364
0.826 0.9 0.2
0.174 1 0.2
0.203947 1.06881 0.167865
0.277597 1.10269 0.142206
0.351736 1.11904 0.124557
0.425859 1.12665 0.115309
0.500092 1.12905 0.112582
0.57431 1.12704 0.115633
0.648429 1.11987 0.125198
0.722489 1.1041 0.143207
0.794905 1.06907 0.170506
0.826 1 0.2
0.174 0 0.3
0.205301 -0.072555 0.2793
0.279057 -0.109029 0.261449
0.353838 -0.126508 0.248541
0.427241 -0.134571 0.241209
0.49987 -0.136845 0.238988
0.572529 -0.134264 0.241609
0.646147 -0.125684 0.249408
0.721444 -0.107073 0.262859
0.796757 -0.069493 0.282552
0.826 0 0.3
0.174 0.1 0.3
0.252108 0.0430668 0.279754
0.31163 0.00557764 0.262003
0.372658 -0.0130259 0.249643
0.435779 -0.0214962 0.242708
0.4997 -0.0238645 0.240656
0.563581 -0.0212544 0.243122
0.626648 -0.0124267 0.250433
0.687692 0.00689563 0.263125
0.747606 0.0456355 0.280489
0.826 0.1 0.3
0.174 0.2 0.3
0.258179 0.163125 0.278314
0.325222 0.132888 0.26002
0.384609 0.114004 0.247254
0.442196 0.104477 0.240127
0.49959 0.101732 0.237987
0.557029 0.104829 0.240464
0.614673 0.114723 0.247877
[...]
POINT_DATA 56791
SCALARS Displacements float 1
LOOKUP_TABLE default
0.174 0.0961754 0.131041 0.15386 0.164947 0.168099 0.164094 0.151093 0.118673 0.12804 0.174 0.174 0.128889 0.142932 0.154492 0.161186 0.163188 0.160778 0.153725 0.141541 0.126341 0.174 0.174 0.130976 0.143293 0.151671 0.155732 0.156797 0.155347 0.150841 0.141516 0.128403 0.174 0.174 0.129439 0.139913 0.146676 0.14928 0.149775 0.14896 0.145953 0.13848 0.127156 0.174 0.174 0.127876 0.137289 0.142876 0.144523 0.144681 0.144362 0.142434 0.136142 0.125617 0.174 0.174 0.12714 0.136167 0.141368 0.14271 0.142797 0.142688 0.141202 0.135357 0.125185 0.174 0.174 0.127344 0.136625 0.142331 0.144095 0.144374 0.14415 0.142347 0.136242 0.126446 0.174 0.174 0.12821 0.138653 0.145623 0.14844 0.14914 0.148502 0.145687 0.138458 0.127937 0.174 0.174 0.12935 0.141563 0.150291 0.154592 0.155882 0.154605 0.150296 0.14145 0.129508 0.174 0.174 0.128415 0.142237 0.153531 0.160172 0.162254 0.160085 0.153365 0.142298 0.128128 0.174 0.174 0.106175 0.133408 0.153603 0.164258 0.167549 0.164139 0.153266 0.131577 0.0915085 0.174 0.174 0.127611 0.142681 0.154411 0.161111 0.163074 0.160533 0.152943 0.139176 0.125788 0.174 0.174 0.162131 0.152448 0.152157 0.153709 0.154252 0.15338 0.151583 0.151787 0.161235 0.174 0.174 0.163949 0.153034 0.148095 0.146002 0.145273 0.145692 0.147498 0.152216 0.163074 0.174 0.174 0.163534 0.150916 0.143336 0.138834 0.137176 0.138639 0.143027 0.150507 0.162929 0.174 0.174 0.163094 0.149277 0.140064 0.134098 0.13189 0.134084 0.140074 0.149254 0.16276 0.174 0.174 0.162828 0.148576 0.13881 0.132356 0.130001 0.132463 0.139036 0.148792 0.162709 0.174 0.174 0.162874 0.148854 0.139598 0.133671 0.131567 0.133839 0.139912 0.149185 0.162773 0.174 0.174 0.163001 0.150028 0.142392 0.137959 0.136492 0.138095 0.142657 0.150379 0.163032 0.174 0.174 0.163176 0.151747 0.146707 0.144756 0.14419 0.144864 0.146969 0.151987 0.163261 0.174 0.174 0.161508 0.151402 0.150872 0.1524 0.153097 0.152317 0.150896 0.151471 0.161411 0.174 0.174 0.12828 0.141678 0.153314 0.160073 0.162243 0.16012 0.153403 0.141885 0.127691 0.174 0.174 0.130977 0.143304 0.151675 0.155716 0.156753 0.155213 0.150467 0.140792 0.127306 0.174 0.174 0.164002 0.153088 0.14816 0.146067 0.145335 0.145745 0.147499 0.152172 0.16312 0.174 0.174 0.164869 0.151296 0.139897 0.132816 0.130306 0.132522 0.139364 0.15077 0.164536 0.174 0.174 0.163831 0.147516 0.131558 0.12023 0.116052 0.120081 0.131324 0.147281 0.163723 0.174 0.174 0.163127 0.145012 0.126231 0.112036 0.106666 0.112041 0.126264 0.145079 0.163156 0.174 0.174 0.162836 0.144093 0.124338 0.109141 0.103361 0.109292 0.124557 0.144256 0.16295 0.174 0.174 0.162975 0.144728 0.125854 0.111621 0.106273 0.111766 0.126086 0.144941 0.163099 0.174 0.174 0.163519 0.146895 0.130761 0.119388 0.115285 0.11948 0.130955 0.147095 0.163635 0.174 0.174 0.164297 0.150312 0.138722 0.131529 0.129163 0.131686 0.138776 0.150416 0.164308 0.174 0.174 0.163167 0.151899 0.146852 0.144883 0.144173 0.144795 0.146831 0.151894 0.163315 0.174 0.174 0.128731 0.141091 0.150128 0.15454 0.15587 0.15465 0.150409 0.14167 0.129175 0.174 0.174 0.129541 0.140084 0.146802 0.149358 0.14983 0.148967 0.145795 0.137895 0.12567 0.174 0.174 0.163671 0.151065 0.143492 0.13901 0.137347 0.138795 0.143099 0.150471 0.162973 0.174 0.174 0.163862 0.147591 0.131667 0.120375 0.1162 0.120202 0.131414 0.147367 0.163747 0.174 0.174 0.162345 0.141777 0.118916 0.100556 0.0933034 0.100554 0.118936 0.141765 0.162268 0.174 0.174 0.161294 0.137916 0.110373 0.0863322 0.0761118 0.0864849 0.110563 0.13805 0.161296 0.174 0.174 0.16094 0.1366 0.107393 0.0811031 0.0695204 0.0813199 0.107641 0.13674 0.160956 0.174 0.174 0.161216 0.137761 0.110173 0.0859835 0.0756651 0.0861383 0.110343 0.137924 0.161238 0.174 0.174 0.162143 0.141399 0.118432 0.0999052 0.0926294 0.0999511 0.11856 0.141461 0.162191 0.174 0.174 0.163576 0.146973 0.130954 0.11951 0.115372 0.119596 0.130924 0.147064 0.163575 0.174 0.174 0.16297 0.15029 0.142644 0.138216 0.136744 0.138028 0.142641 0.150174 0.163053 0.174 0.174 0.127198 0.138284 0.145537 0.148565 0.149203 0.148525 0.145754 0.138714 0.12812 0.174 0.174 0.127276 0.137282 0.142954 0.144631 0.144799 0.14444 0.142392 0.135815 0.124566 0.174 0.174 0.163265 0.149393 0.140256 0.134328 0.132136 0.134299 0.140187 0.14924 0.162815 0.174 0.174 0.163176 0.145132 0.12643 0.112326 0.106971 0.112312 0.126456 0.145157 0.163189 0.174 0.174 0.16133 0.13798 0.110497 0.0865197 0.0763151 0.086664 0.110653 0.138054 0.16129 0.174 0.174 0.160054 0.133165 0.0992578 0.0656273 0.0483991 0.0658604 0.0994426 0.133274 0.160069 0.174 0.174 0.159615 0.1315 0.0952697 0.0570966 0.0345266 0.0573092 0.0954048 0.131572 0.159634 0.174 0.174 0.160012 0.133079 0.099154 0.0653895 0.0479291 0.0654442 0.0992057 0.133148 0.160043 0.174 0.174 0.161245 0.137814 0.110231 0.08609 0.0757255 0.086084 0.110255 0.137862 0.161265 0.174 0.174 0.163097 0.144884 0.126036 0.111767 0.10643 0.111752 0.126011 0.144816 0.163 0.174 0.174 0.162664 0.149091 0.140004 0.133793 0.131632 0.133869 0.139696 0.148946 0.162909 0.174 0.174 0.12567 0.136097 0.142255 0.144203 0.144465 0.144287 0.142499 0.136761 0.127207 0.174 0.174 0.12325 0.135726 0.141309 0.142791 0.142903 0.14277 0.141225 0.13525 0.125074 0.174 0.174 0.162848 0.148526 0.13896 0.13261 0.130269 0.132681 0.139151 0.148818 0.162698 0.174 0.174 0.162879 0.144218 0.124599 0.109533 0.103746 0.109595 0.124725 0.144382 0.163008 0.174 0.174 0.160945 0.136672 0.107592 0.0814322 0.0699048 0.0815642 0.10777 0.136816 0.160975 0.174 0.174 0.159626 0.131546 0.0953505 0.0572818 0.0348479 0.0574534 0.0954653 0.131616 0.159608 0.174 0.174 0.15916 0.129795 0.0909644 0.046689 0.000252941 0.0467614 0.0909981 0.12978 0.159131 0.174 0.174 0.159603 0.131537 0.0953446 0.057141 0.0343857 0.0571393 0.0952955 0.131495 0.159597 0.174 0.174 0.160949 0.136656 0.107517 0.0812231 0.0694998 0.0811162 0.10743 0.13662 0.160956 0.174 0.174 0.162955 0.144201 0.124495 0.109227 0.103369 0.109258 0.124442 0.144161 0.162849 0.174 0.174 0.162523 0.148723 0.139066 0.132551 0.130154 0.13241 0.138864 0.148682 0.162914 0.174 0.174 0.125236 0.135362 0.141205 0.142782 0.14292 0.142861 0.141485 0.13623 0.127157 0.174 0.174 0.122937 0.136151 0.142217 0.144106 0.144421 0.144189 0.142322 0.136 0.125559 0.174 0.174 0.162845 0.148718 0.13969 0.133855 0.131771 0.133986 0.139969 0.149142 0.162801 0.174 0.174 0.16296 0.144851 0.126103 0.111994 0.106594 0.112009 0.126182 0.144954 0.163111 0.174 0.174 0.161235 0.13785 0.110354 0.0863383 0.0760874 0.0863594 0.11043 0.137895 0.16127 0.174 0.174 0.160039 0.133165 0.0993131 0.0656678 0.0482882 0.0656523 0.099289 0.133156 0.160062 0.174 0.174 0.159635 0.131591 0.0954175 0.0573031 0.0346451 0.0572118 0.0952971 0.131502 0.159655 0.174 0.174 0.16005 0.133213 0.0993425 0.0656713 0.0481366 0.0655001 0.0992139 0.13313 0.160028 0.174 0.174 0.161276 0.137972 0.110429 0.0863462 0.075997 0.0862195 0.110333 0.137903 0.161287 0.174 0.174 0.163123 0.144963 0.12615 0.111965 0.106601 0.111954 0.126189 0.145012 0.163168 0.174 0.174 0.16262 0.149161 0.139936 0.134014 0.131921 0.134119 0.140048 0.149324 0.163162 0.174 0.174 0.125838 0.136153 0.142414 0.144367 0.144714 0.144553 0.142852 0.137236 0.12783 0.174 0.174 0.124737 0.138489 0.145604 0.148417 0.149088 0.148465 0.14563 0.138297 0.127403 0.174 0.174 0.162946 0.149976 0.142439 0.138096 0.136573 0.138151 0.142681 0.15041 0.163063 0.174 0.174 0.163538 0.147002 0.130934 0.119606 0.115517 0.119616 0.130983 0.147128 0.163591 0.174 0.174 0.162198 0.141569 0.118571 0.100125 0.0928316 0.1001 0.118527 0.141445 0.16215 0.174 0.174 0.161326 0.137964 0.110422 0.0863195 0.0759622 0.0862367 0.110319 0.137819 0.161233 0.174 0.174 0.161012 0.13676 0.107641 0.0814161 0.0696601 0.0812498 0.107489 0.136626 0.160915 0.174 0.174 0.161315 0.138006 0.110501 0.0864252 0.076088 0.0862802 0.110359 0.137898 0.161307 0.174 0.174 0.162228 0.141672 0.118718 0.100255 0.0929806 0.100324 0.118741 0.141688 0.162331 0.174 0.174 0.163683 0.147226 0.131164 0.119776 0.11579 0.11995 0.131391 0.147429 0.163818 0.174 0.174 0.162808 0.150376 0.142865 0.138392 0.137007 0.138704 0.143128 0.150811 0.163506 0.174 0.174 0.126656 0.138316 0.145803 0.148799 0.149641 0.149107 0.146467 0.139694 0.129054 0.174 0.174 0.129717 0.141855 0.150366 0.154537 0.155781 0.154515 0.150234 0.141319 0.129169 0.174 0.174 0.16334 0.151829 0.146764 0.144815 0.144163 0.14481 0.146895 0.152018 0.163304 0.174 0.174 0.164378 0.150433 0.138867 0.13165 0.129339 0.131681 0.138784 0.150414 0.164324 0.174 0.174 0.163667 0.147166 0.131083 0.119644 0.115419 0.119641 0.130861 0.146918 0.163462 0.174 0.174 0.163195 0.145016 0.126136 0.111868 0.10659 0.111841 0.126015 0.144778 0.162982 0.174 0.174 0.163048 0.144349 0.124616 0.109393 0.103573 0.109272 0.124435 0.144168 0.162871 0.174 0.174 0.163205 0.145059 0.126286 0.112126 0.106717 0.111988 0.126236 0.145026 0.163134 0.174 0.174 0.163717 0.147225 0.131189 0.11994 0.115812 0.119993 0.131389 0.147434 0.163808 0.174 0.174 0.164476 0.150565 0.139053 0.131974 0.129773 0.132328 0.139553 0.151091 0.164738 0.174 0.174 0.163089 0.15198 0.147031 0.145251 0.144654 0.145544 0.147696 0.152778 0.163846 0.174 0.174 0.12784 0.141127 0.150417 0.15495 0.156431 0.15545 0.151312 0.142818 0.130616 0.174 0.174 0.127385 0.142034 0.153507 0.160073 0.162115 0.159933 0.153125 0.14157 0.128774 0.174 0.174 0.16167 0.151456 0.150875 0.152373 0.15304 0.152198 0.15076 0.151193 0.16145 0.174 0.174 0.163387 0.152015 0.146997 0.14492 0.144077 0.144648 0.14661 0.151753 0.163358 0.174 0.174 0.163252 0.150376 0.142734 0.138316 0.136707 0.138006 0.142368 0.149887 0.162943 0.174 0.174 0.163035 0.149177 0.140092 0.133898 0.131752 0.133843 0.139552 0.148679 0.162706 0.174 0.174 0.16294 0.148753 0.13913 0.132584 0.130124 0.132461 0.138871 0.148608 0.162989 0.174 0.174 0.162953 0.149154 0.139963 0.134171 0.131983 0.134077 0.140188 0.149365 0.163186 0.174 0.174 0.163057 0.150346 0.142713 0.138409 0.136986 0.138732 0.143236 0.150839 0.163522 0.174 0.174 0.163204 0.151953 0.147034 0.145213 0.144667 0.145545 0.147736 0.152822 0.163879 0.174 0.174 0.161546 0.151379 0.151132 0.152897 0.153574 0.153196 0.151964 0.15261 0.162581 0.174 0.174 0.127601 0.141796 0.153593 0.160536 0.162916 0.16106 0.154668 0.143676 0.130357 0.174 0.174 0.106627 0.133458 0.153552 0.164135 0.167371 0.163913 0.152918 0.13146 0.0989513 0.174 0.174 0.128435 0.142082 0.153353 0.160017 0.162054 0.159903 0.153121 0.14117 0.124038 0.174 0.174 0.129049 0.141187 0.150165 0.154589 0.155758 0.154482 0.150252 0.141645 0.129791 0.174 0.174 0.126917 0.138192 0.145549 0.148576 0.149186 0.148389 0.145532 0.138419 0.124869 0.174 0.174 0.124998 0.135789 0.1422 0.144229 0.144416 0.144079 0.142158 0.136095 0.123236 0.174 0.174 0.123741 0.134943 0.141034 0.142739 0.142828 0.142835 0.14135 0.136193 0.126857 0.174 0.174 0.124007 0.135664 0.142193 0.144365 0.144623 0.144561 0.142973 0.137485 0.128197 0.174 0.174 0.125334 0.137946 0.145587 0.148738 0.149638 0.149192 0.14656 0.139905 0.129513 0.174 0.174 0.127159 0.140956 0.150336 0.154901 0.156404 0.155461 0.151441 0.143007 0.130947 0.174 0.174 0.126339 0.141785 0.153632 0.160505 0.16284 0.161022 0.154721 0.1438 0.130637 0.174 0.174 0.101556 0.132222 0.153563 0.164679 0.168284 0.165268 0.154965 0.13479 0.108277 0.174 0.168126 0.141707 0.148894 0.157339 0.161524 0.161268 0.156522 0.147225 0.140188 0.159666 0.168334 0.151477 0.150986 0.15352 0.155 0.154813 0.153003 0.150248 0.150461 0.167115 0.168054 0.150662 0.148462 0.148312 0.148047 0.147874 0.14781 0.147713 0.15003 0.167462 0.167771 0.149252 0.145461 0.143599 0.142221 0.142119 0.143297 0.145016 0.148794 0.167527 0.167574 0.148323 0.143669 0.140919 0.13899 0.138961 0.140835 0.143514 0.148208 0.167663 0.167463 0.148087 0.143393 0.140684 0.138801 0.138816 0.14073 0.143457 0.148126 0.167504 0.167352 0.148568 0.144688 0.142907 0.141655 0.141674 0.142968 0.144783 0.148865 0.167993 0.167291 0.149521 0.147219 0.14718 0.147082 0.147075 0.147194 0.147294 0.149879 0.168502 0.167243 0.150082 0.149656 0.152203 0.153793 0.153779 0.152156 0.14954 0.149961 0.168293 0.1665 0.142938 0.148534 0.156308 0.160452 0.160451 0.156194 0.148185 0.142233 0.166399 0.168366 0.151377 0.150951 0.153516 0.154994 0.154787 0.152885 0.149877 0.149878 0.167075 0.170115 0.159301 0.150279 0.146121 0.144386 0.144195 0.145556 0.149414 0.158385 0.169842 0.170031 0.158159 0.145884 0.137446 0.133046 0.132865 0.136952 0.145259 0.157748 0.169875 0.169876 0.156772 0.1421 0.130732 0.124335 0.124233 0.130476 0.141826 0.156651 0.169794 0.169769 0.155965 0.140063 0.127224 0.119806 0.11979 0.127187 0.140046 0.156027 0.16976 0.169733 0.155794 0.139839 0.126984 0.119599 0.119631 0.127066 0.139967 0.155977 0.169777 0.169777 0.156258 0.141406 0.130008 0.123695 0.12373 0.130106 0.141567 0.156548 0.169855 0.16987 0.157303 0.144726 0.136246 0.131962 0.131992 0.136328 0.144856 0.157572 0.16992 0.169887 0.15813 0.148808 0.144626 0.143037 0.143051 0.144684 0.14887 0.158166 0.16988 0.168672 0.149906 0.149448 0.152101 0.153748 0.153772 0.152221 0.149648 0.150151 0.167237 0.168208 0.150752 0.148549 0.148396 0.148132 0.147947 0.147823 0.147559 0.149697 0.167122 0.170072 0.158245 0.145964 0.137541 0.133158 0.132975 0.137041 0.145278 0.157688 0.169884 0.169793 0.155816 0.138177 0.123165 0.114477 0.114297 0.122717 0.137719 0.155541 0.169615 0.169488 0.15345 0.131798 0.111552 0.0988738 0.0987567 0.111294 0.131582 0.153349 0.169375 0.169334 0.152166 0.128455 0.105376 0.0902972 0.0902645 0.105308 0.128429 0.152189 0.16927 0.169326 0.152059 0.128275 0.105151 0.0900765 0.0900895 0.105194 0.128359 0.152147 0.169279 0.169438 0.153103 0.131251 0.110889 0.0982144 0.0982443 0.110936 0.131338 0.153203 0.169424 0.169689 0.155259 0.137284 0.122101 0.113462 0.113486 0.122177 0.137346 0.15531 0.169674 0.169956 0.157512 0.144794 0.136286 0.13201 0.132023 0.136331 0.144819 0.157382 0.169887 0.168326 0.149584 0.147144 0.147165 0.1471 0.147105 0.147262 0.147327 0.149618 0.167328 0.168006 0.149467 0.145589 0.143746 0.14238 0.142265 0.143375 0.144913 0.148467 0.1674 0.16992 0.15694 0.142272 0.130939 0.124575 0.124465 0.130642 0.14187 0.156596 0.169772 0.169501 0.15351 0.131887 0.111699 0.0990569 0.0989289 0.1114 0.131617 0.153334 0.169388 0.169108 0.15022 0.123031 0.0947123 0.0746004 0.0745015 0.0945344 0.1229 0.150202 0.169009 0.168883 0.148545 0.118299 0.0850225 0.0588814 0.0588517 0.0849905 0.118286 0.148543 0.168837 0.168862 0.148476 0.118175 0.0848487 0.0586481 0.0586581 0.0848866 0.118221 0.148512 0.168846 0.169064 0.150049 0.122659 0.0942112 0.074018 0.0740313 0.0942439 0.122715 0.15009 0.16905 0.169441 0.153157 0.131307 0.110938 0.0982693 0.0982858 0.110988 0.131325 0.153154 0.169425 0.169833 0.156495 0.14154 0.130103 0.123798 0.123808 0.130113 0.141518 0.156328 0.169784 0.167888 0.148584 0.144675 0.142977 0.141733 0.141744 0.14303 0.144788 0.148622 0.167423 0.167756 0.147809 0.143596 0.14104 0.139182 0.139141 0.14094 0.143484 0.148065 0.167242 0.169835 0.156116 0.140265 0.127509 0.120136 0.120093 0.127393 0.140129 0.156016 0.169745 0.169348 0.152273 0.128638 0.105667 0.090659 0.0905832 0.105498 0.128498 0.152182 0.169279 0.168873 0.148588 0.118389 0.0851868 0.0591326 0.059069 0.0850849 0.118314 0.148541 0.168821 0.168658 0.146639 0.112796 0.0728059 0.0337442 0.0337294 0.0727868 0.112805 0.146602 0.168597 0.168627 0.146594 0.112759 0.0726743 0.0334456 0.0335008 0.0727169 0.112761 0.146574 0.168607 0.168853 0.148473 0.118166 0.0848394 0.0586398 0.0586664 0.0848737 0.118192 0.148487 0.168868 0.169314 0.152096 0.128294 0.105172 0.090116 0.0901445 0.105215 0.128326 0.1521 0.169309 0.16979 0.155949 0.13994 0.127072 0.119691 0.119706 0.127074 0.139909 0.155846 0.169739 0.167822 0.148013 0.14338 0.140757 0.138876 0.138882 0.140789 0.143456 0.14813 0.167545 0.167672 0.147388 0.1432 0.14075 0.138957 0.138961 0.140809 0.143394 0.147895 0.167256 0.16979 0.155911 0.140019 0.127285 0.119946 0.119926 0.127263 0.140026 0.155929 0.169725 0.169327 0.152171 0.128496 0.105508 0.0905038 0.090449 0.105397 0.128418 0.152133 0.16929 0.168889 0.148549 0.118325 0.0851215 0.0590567 0.0590147 0.085036 0.118252 0.148504 0.168834 0.168646 0.146658 0.112814 0.0727833 0.033755 0.0337993 0.0727991 0.112767 0.146549 0.168608 0.16862 0.146619 0.112798 0.0726873 0.0335923 0.0337174 0.0727865 0.112731 0.146546 0.1686 0.168843 0.148515 0.118222 0.0848997 0.0587546 0.0588218 0.084975 0.118232 0.148505 0.168867 0.169302 0.152137 0.12835 0.105248 0.0902298 0.0902809 0.105358 0.128441 0.152187 0.169336 0.169764 0.155963 0.139967 0.127154 0.119796 0.119827 0.127238 0.140075 0.155988 0.169781 0.167722 0.147997 0.143443 0.140834 0.139007 0.13904 0.140949 0.143655 0.148339 0.167818 0.167464 0.147785 0.144496 0.14293 0.141722 0.141744 0.142989 0.144717 0.148582 0.167641 0.169803 0.156316 0.141545 0.130243 0.123955 0.123933 0.130219 0.141592 0.156501 0.169839 0.16944 0.153214 0.13144 0.111195 0.0985842 0.0985283 0.111094 0.13137 0.153159 0.169418 0.16907 0.150153 0.122826 0.0944673 0.0743681 0.0743224 0.0943813 0.122729 0.150048 0.169043 0.168878 0.148555 0.118292 0.0850323 0.0589282 0.0589208 0.0850016 0.118224 0.148487 0.168853 0.168861 0.148555 0.118286 0.0849949 0.058898 0.0589566 0.0850663 0.118281 0.148501 0.168843 0.169032 0.150176 0.122826 0.0943918 0.0743065 0.0744099 0.0945841 0.122899 0.150174 0.169105 0.169415 0.15328 0.131468 0.111144 0.0985867 0.0987084 0.1114 0.131679 0.153392 0.169471 0.169858 0.156566 0.141705 0.130334 0.124103 0.1242 0.130609 0.142004 0.156743 0.169878 0.167683 0.148693 0.144898 0.143178 0.142024 0.142136 0.143505 0.145318 0.14913 0.167963 0.16752 0.149569 0.147248 0.147207 0.147085 0.14707 0.147157 0.147251 0.149757 0.168456 0.169885 0.157389 0.144847 0.136391 0.132103 0.132083 0.13634 0.144839 0.157528 0.169938 0.169694 0.155364 0.137457 0.122317 0.113684 0.11365 0.122238 0.137328 0.155266 0.169657 0.169447 0.153276 0.131477 0.111149 0.0985312 0.0985141 0.111082 0.131329 0.153106 0.169413 0.169322 0.152215 0.128449 0.105362 0.0903529 0.0903495 0.105342 0.128358 0.152076 0.169297 0.169312 0.152234 0.128469 0.105388 0.0903967 0.0904316 0.105464 0.128484 0.15218 0.169313 0.169416 0.153342 0.131522 0.111214 0.0986606 0.098768 0.111466 0.131723 0.153408 0.169474 0.169661 0.155479 0.137552 0.12244 0.11392 0.114092 0.122867 0.137972 0.15571 0.169763 0.169897 0.15766 0.145054 0.13663 0.132466 0.13264 0.137096 0.145618 0.158022 0.170016 0.167813 0.149849 0.147474 0.147514 0.147552 0.147736 0.148013 0.148133 0.150377 0.168235 0.167319 0.150116 0.149705 0.152209 0.153749 0.153694 0.152067 0.149518 0.150229 0.168895 0.169943 0.158256 0.148931 0.144728 0.143079 0.143068 0.144638 0.14883 0.158188 0.169893 0.16997 0.15764 0.144945 0.136439 0.132109 0.132086 0.136301 0.144736 0.15729 0.169855 0.169852 0.156635 0.141694 0.130281 0.123957 0.123923 0.130139 0.141416 0.156203 0.16976 0.169817 0.156088 0.140087 0.127224 0.119869 0.119838 0.127159 0.139901 0.155816 0.169749 0.169817 0.156085 0.14009 0.127288 0.119945 0.119942 0.127317 0.140137 0.156015 0.169781 0.169839 0.156642 0.141757 0.130401 0.12418 0.124256 0.130692 0.142084 0.156752 0.169856 0.169936 0.157678 0.145057 0.136643 0.132498 0.132665 0.137132 0.145654 0.158014 0.169996 0.1699 0.158332 0.149118 0.145046 0.143581 0.143784 0.145618 0.149915 0.158973 0.170072 0.167344 0.150143 0.14979 0.152534 0.154332 0.154558 0.153178 0.150751 0.151035 0.168352 0.166899 0.142818 0.148521 0.156251 0.160369 0.160306 0.156026 0.147885 0.141041 0.166658 0.168554 0.150223 0.149581 0.152141 0.153709 0.153678 0.152075 0.14948 0.149843 0.167204 0.168229 0.149708 0.147243 0.147214 0.147092 0.147054 0.147119 0.147154 0.149502 0.167565 0.167496 0.148639 0.144735 0.143036 0.141783 0.141731 0.142859 0.144416 0.1477 0.167469 0.166869 0.148046 0.143375 0.140768 0.138942 0.138922 0.140711 0.143241 0.147435 0.167559 0.167113 0.147942 0.143353 0.140822 0.139036 0.139083 0.14101 0.143746 0.14852 0.167796 0.167237 0.148556 0.144767 0.143134 0.142035 0.142173 0.143589 0.145483 0.149301 0.167878 0.16