# vtk DataFile Version 5.1
vtk output
ASCII

DATASET UNSTRUCTURED_GRID
POINTS 56791 float
0.174 0 0
0.174 -0.0451647 -0.0444743
0.242625 -0.0863272 -0.0864122
0.328477 -0.104016 -0.104299
0.414394 -0.112612 -0.113168
0.500157 -0.115082 -0.115932
0.585847 -0.112098 -0.113271
0.671464 -0.102973 -0.104411
0.756157 -0.0849331 -0.0862699
0.826 -0.0475094 -0.046704
0.826 0 0
0.174 0.1 0
0.202884 0.0562582 -0.0660227
0.268346 0.023353 -0.0955529
0.343268 0.00625311 -0.109048
0.421189 -0.0019701 -0.11629
0.500025 -0.00429315 -0.118569
0.578782 -0.00146301 -0.116295
0.656616 0.00734167 -0.108948
0.731528 0.0253382 -0.0946752
0.80136 0.0592729 -0.0657805
0.826 0.1 0
0.174 0.2 0
0.206353 0.170545 -0.0697431
0.278567 0.143675 -0.101796
0.35214 0.126496 -0.11651
0.425963 0.117698 -0.123441
0.500087 0.115171 -0.125493
0.574276 0.118171 -0.123369
0.648306 0.127489 -0.116265
0.722799 0.145149 -0.100867
0.799982 0.17214 -0.0644576
0.826 0.2 0
0.174 0.3 0
0.206393 0.280552 -0.0706192
0.280081 0.263032 -0.105193
0.354549 0.250565 -0.122121
0.427717 0.243498 -0.130009
0.500172 0.241353 -0.132292
0.572684 0.243822 -0.12993
0.64611 0.251261 -0.121876
0.7216 0.263941 -0.10445
0.800101 0.281661 -0.0651731
0.826 0.3 0
0.174 0.4 0
0.205792 0.390374 -0.0713835
0.27974 0.381621 -0.107287
0.354647 0.375272 -0.12546
0.427946 0.371535 -0.13414
0.500129 0.370366 -0.136687
0.572358 0.371695 -0.134088
0.645963 0.375636 -0.125281
0.721807 0.382103 -0.106672
0.800408 0.390765 -0.066132
0.826 0.4 0
0.174 0.5 0
0.205488 0.500262 -0.0715386
0.279438 0.500045 -0.107919
0.354479 0.500024 -0.126537
0.427854 0.500081 -0.135483
0.50008 0.500145 -0.138123
0.57232 0.500196 -0.135417
0.646016 0.500206 -0.126386
0.721886 0.500264 -0.10738
0.80045 0.500294 -0.0668224
0.826 0.5 0
0.174 0.6 0
0.20557 0.609992 -0.0709561
0.279478 0.618459 -0.107037
0.354454 0.624829 -0.125298
0.427766 0.628651 -0.133972
0.499963 0.62992 -0.136492
0.572094 0.628738 -0.133927
0.645571 0.624797 -0.125132
0.721181 0.618304 -0.10649
0.799432 0.609247 -0.0668105
0.826 0.6 0
0.174 0.7 0
0.205673 0.719736 -0.0697138
0.279293 0.737 -0.104744
0.353946 0.749432 -0.121788
0.427335 0.756545 -0.129685
0.499852 0.759017 -0.131944
0.572264 0.756812 -0.129582
0.645441 0.749582 -0.121593
0.719973 0.736801 -0.104301
0.794637 0.719889 -0.0707404
0.826 0.7 0
0.174 0.8 0
0.202673 0.831194 -0.0662914
0.276192 0.856099 -0.100789
0.351035 0.872926 -0.116064
0.425562 0.882099 -0.123002
0.499937 0.885137 -0.124943
0.574115 0.882728 -0.122736
0.647926 0.873862 -0.115661
0.721406 0.85639 -0.100615
0.79401 0.829614 -0.0701111
0.826 0.8 0
0.174 0.9 0
0.193709 0.940109 -0.0612394
0.26609 0.97425 -0.0950179
0.342411 0.992184 -0.108919
0.420976 1.00132 -0.115882
0.500211 1.00453 -0.11782
0.579279 1.00235 -0.115213
0.657245 0.99431 -0.107682
0.73189 0.976507 -0.0944348
0.801568 0.940686 -0.0638062
0.826 0.9 0
0.174 1 0
0.174 1.04949 -0.0246902
0.241448 1.08304 -0.0877997
0.327745 1.10195 -0.104789
0.413906 1.11156 -0.112897
0.500043 1.1149 -0.115044
0.586236 1.11268 -0.111802
0.672455 1.10455 -0.10224
0.758761 1.08712 -0.0836722
0.826 1.0236 -0.0499419
0.826 1 0
0.174 0 0.1
0.203459 -0.0656017 0.0560884
0.268428 -0.0954001 0.0231733
0.343398 -0.108738 0.00591815
0.421332 -0.115802 -0.00253481
0.500157 -0.117875 -0.0051228
0.578868 -0.115399 -0.00257788
0.656419 -0.107943 0.0060025
0.731029 -0.093785 0.024014
0.800212 -0.065523 0.0584459
0.826 0 0.1
0.174 0.1 0.1
0.245443 0.0521862 0.0520685
0.297156 0.0200139 0.0198378
0.359423 0.00459109 0.00429294
0.428524 -0.00276658 -0.00324901
0.499996 -0.00486242 -0.00554945
0.571414 -0.00235126 -0.00325203
0.64034 0.00546542 0.0043996
0.702407 0.0214928 0.0204284
0.754254 0.0538098 0.0531408
0.826 0.1 0.1
0.174 0.2 0.1
0.250517 0.169525 0.0480185
0.308786 0.143297 0.0141467
0.369384 0.127063 -0.00232117
0.433827 0.118839 -0.00985883
0.500013 0.11645 -0.0120803
0.566219 0.119249 -0.00989061
0.630708 0.127925 -0.00231258
0.691369 0.144448 0.0144894
0.749751 0.169861 0.0494282
0.826 0.2 0.1
0.174 0.3 0.1
0.251228 0.280743 0.0457234
0.311346 0.263619 0.00987788
0.372783 0.251734 -0.00815033
0.436094 0.245017 -0.0164819
0.500132 0.243004 -0.0189221
0.564149 0.245318 -0.0165496
0.627554 0.252201 -0.0082487
0.689057 0.264248 0.00998747
0.749034 0.280727 0.0469303
0.826 0.3 0.1
0.174 0.4 0.1
0.251194 0.39074 0.0442808
0.311698 0.382071 0.00720377
0.373435 0.376034 -0.0118427
0.436574 0.372515 -0.0208164
0.500044 0.371347 -0.0234725
0.563636 0.372574 -0.0209075
0.62686 0.376306 -0.0120135
0.688678 0.382433 0.00716561
0.749032 0.390536 0.0452891
0.826 0.4 0.1
0.174 0.5 0.1
0.251146 0.500565 0.0438474
0.311638 0.500062 0.00634203
0.373492 0.500102 -0.0130496
0.436594 0.500001 -0.0222521
0.500015 0.50002 -0.0249716
0.5635 0.500106 -0.0223303
0.626673 0.500109 -0.0132211
0.688538 0.500111 0.00626783
0.748879 0.500069 0.0447059
0.826 0.5 0.1
0.174 0.6 0.1
0.251048 0.610086 0.0444243
0.311516 0.618051 0.00733439
0.373269 0.624074 -0.0117394
0.436428 0.627679 -0.0206927
0.499929 0.628975 -0.0233029
0.563447 0.627737 -0.0206994
0.626564 0.62407 -0.011761
0.688289 0.617891 0.00745018
0.748738 0.609594 0.0453761
0.826 0.6 0.1
0.174 0.7 0.1
0.250826 0.719932 0.0458824
0.310851 0.736478 0.00997237
0.372295 0.748251 -0.00804364
0.435709 0.755083 -0.0162981
0.499851 0.757315 -0.0186299
0.5639 0.755263 -0.016153
0.627119 0.748571 -0.00775226
0.68842 0.736341 0.0105751
0.748568 0.719522 0.0472359
0.826 0.7 0.1
0.174 0.8 0.1
0.250207 0.830876 0.0483464
0.307733 0.856126 0.0139561
0.368662 0.872358 -0.00235607
0.433468 0.88101 -0.00968143
0.499947 0.883766 -0.0116772
0.566325 0.881479 -0.0092991
0.630649 0.873271 -0.00160107
0.691081 0.85693 0.015172
0.749432 0.830871 0.0495911
0.826 0.8 0.1
0.174 0.9 0.1
0.243365 0.947118 0.0531847
0.296333 0.978343 0.0195826
0.358803 0.99442 0.0040903
0.428279 1.00232 -0.00309786
0.500082 1.00489 -0.00503752
0.571847 1.00292 -0.00243559
0.641282 0.995729 0.00541008
0.70384 0.980009 0.0212658
0.756703 0.946488 0.0521498
0.826 0.9 0.1
0.174 1 0.1
0.200339 1.06441 0.057073
0.268383 1.09395 0.0230313
0.342845 1.10738 0.00544976
0.420806 1.11511 -0.00246523
0.499958 1.11769 -0.00451032
0.579184 1.11574 -0.00149037
0.657772 1.10857 0.00741827
0.734092 1.09469 0.0250943
0.807264 1.06168 0.0588158
0.826 1 0.1
0.174 0 0.2
0.206356 -0.0697672 0.170385
0.278641 -0.101668 0.143474
0.352228 -0.116233 0.126147
0.426033 -0.123028 0.11718
0.50003 -0.124952 0.114448
0.573975 -0.122733 0.117235
0.64777 -0.115572 0.126377
0.721616 -0.100206 0.143929
0.795005 -0.0681462 0.170945
0.826 0 0.2
0.174 0.1 0.2
0.250488 0.0480855 0.169366
0.308743 0.0142852 0.143113
0.369388 -0.0020532 0.126789
0.433819 -0.00944758 0.118386
0.499931 -0.0115147 0.115857
0.566109 -0.00917198 0.118471
0.630375 -0.00146503 0.126997
0.690968 0.015385 0.143522
0.749327 0.050094 0.169237
0.826 0.1 0.2
0.174 0.2 0.2
0.256371 0.166919 0.166793
0.3212 0.13974 0.139601
0.380299 0.122848 0.122596
0.439697 0.114352 0.113991
0.49993 0.111901 0.111396
0.560116 0.114646 0.114021
0.619544 0.123465 0.12273
0.678707 0.140526 0.139845
0.743682 0.167435 0.167027
0.826 0.2 0.2
0.174 0.3 0.2
0.257153 0.279368 0.164875
0.324235 0.261885 0.136129
0.384069 0.249568 0.11805
0.442115 0.242697 0.108816
0.499953 0.240579 0.106022
0.557834 0.242895 0.108804
0.615914 0.249877 0.11807
0.675816 0.262232 0.136294
0.742914 0.279392 0.1651
0.826 0.3 0.2
0.174 0.4 0.2
0.257266 0.39011 0.163594
0.324815 0.381499 0.133812
0.384982 0.375215 0.114931
0.442784 0.371583 0.105197
0.499978 0.370421 0.102232
0.557124 0.371609 0.105148
0.614942 0.375343 0.114884
0.675063 0.381477 0.133845
0.742724 0.389885 0.163775
0.826 0.4 0.2
0.174 0.5 0.2
0.257202 0.500222 0.163115
0.324884 0.500169 0.133013
0.385107 0.500167 0.113855
0.442905 0.50011 0.103949
0.499952 0.500005 0.100933
0.55707 0.500169 0.103921
0.614754 0.500156 0.113824
0.67504 0.500075 0.133083
0.74261 0.499993 0.163299
0.826 0.5 0.2
0.174 0.6 0.2
0.257143 0.610296 0.163626
0.324705 0.618803 0.133831
0.38487 0.624892 0.114977
0.442706 0.628527 0.105264
0.499905 0.629829 0.102356
0.557106 0.628668 0.105328
0.614935 0.6249 0.115071
0.675128 0.618749 0.134052
0.74277 0.610128 0.163855
0.826 0.6 0.2
0.174 0.7 0.2
0.256941 0.720827 0.164957
0.324067 0.738134 0.136154
0.383971 0.750433 0.118097
0.442043 0.757358 0.108913
0.499957 0.75967 0.106229
0.557859 0.757605 0.109109
0.615853 0.750651 0.118435
0.675736 0.738307 0.136638
0.742949 0.72077 0.165189
0.826 0.7 0.2
0.174 0.8 0.2
0.256173 0.832672 0.166933
0.321169 0.859606 0.139528
0.38027 0.876763 0.122517
0.439732 0.885575 0.114035
0.500103 0.888285 0.111619
0.560523 0.885934 0.114415
0.61992 0.877426 0.12317
0.678993 0.860336 0.140203
0.743829 0.833052 0.16714
0.826 0.8 0.2
0.174 0.9 0.2
0.250663 0.950071 0.169134
0.309078 0.984444 0.142911
0.369552 1.00132 0.126582
0.433926 1.00925 0.118395
0.500261 1.01155 0.11611
0.566684 1.00964 0.11889
0.631372 1.00234 0.127379
0.692219 0.985895 0.143553
0.749855 0.951671 0.168786
0.826 0.9 0.2
0.174 1 0.2
0.205746 1.06949 0.169696
0.278739 1.10023 0.143344
0.352152 1.11546 0.125911
0.426001 1.12256 0.117149
0.500245 1.1248 0.114744
0.574608 1.12291 0.117772
0.649092 1.11595 0.126832
0.723541 1.10088 0.143632
0.796128 1.06695 0.169003
0.826 1 0.2
0.174 0 0.3
0.206473 -0.0706358 0.28049
0.280186 -0.105083 0.262908
0.35463 -0.121879 0.250299
0.427701 -0.129661 0.243105
0.499997 -0.13187 0.240842
0.572295 -0.129439 0.24318
0.64542 -0.121372 0.250429
0.720153 -0.103953 0.263155
0.795042 -0.0696342 0.281094
0.826 0 0.3
0.174 0.1 0.3
0.251254 0.0457615 0.280659
0.311308 0.0100033 0.263406
0.37272 -0.00790532 0.251449
0.435953 -0.0161223 0.244718
0.4999 -0.0184463 0.242552
0.56383 -0.0159506 0.24474
0.627031 -0.00753426 0.251587
0.688399 0.0108024 0.263593
0.748596 0.0476078 0.280317
0.826 0.1 0.3
0.174 0.2 0.3
0.257139 0.164974 0.27927
0.324243 0.136286 0.261693
0.384024 0.118304 0.249322
0.442062 0.109156 0.242404
0.49987 0.106483 0.240213
0.557713 0.109365 0.242413
0.615796 0.118694 0.249404
[...]
POINT_DATA 56791
SCALARS Displacements float 1
LOOKUP_TABLE default
0.174 0.0974362 0.129369 0.150029 0.160298 0.163353 0.159989 0.149396 0.128757 0.0995712 0.174 0.174 0.129837 0.140272 0.150173 0.15611 0.15791 0.155787 0.149457 0.138659 0.125362 0.174 0.174 0.130547 0.140385 0.147296 0.150617 0.151474 0.150258 0.146451 0.138357 0.122207 0.174 0.174 0.12917 0.137278 0.142594 0.14444 0.144708 0.144167 0.141892 0.135487 0.12068 0.174 0.174 0.127985 0.134933 0.139061 0.139945 0.139862 0.139803 0.138596 0.133467 0.119905 0.174 0.174 0.127458 0.134003 0.137766 0.138317 0.138123 0.138217 0.137432 0.132787 0.119898 0.174 0.174 0.127592 0.13459 0.138857 0.139787 0.139733 0.13979 0.138691 0.133745 0.121091 0.174 0.174 0.128126 0.136483 0.142078 0.144092 0.144541 0.144182 0.142197 0.136519 0.128457 0.174 0.174 0.126132 0.138242 0.146265 0.150077 0.151192 0.15026 0.146782 0.139571 0.130485 0.174 0.174 0.118913 0.137511 0.148862 0.155355 0.157506 0.155494 0.149391 0.139321 0.124159 0.174 0.174 0.092384 0.127759 0.148813 0.159323 0.162593 0.15933 0.148803 0.127639 0.0923433 0.174 0.174 0.130137 0.140307 0.150195 0.156136 0.157941 0.155839 0.149622 0.13902 0.126403 0.174 0.174 0.160428 0.149208 0.147627 0.148442 0.148784 0.148169 0.14709 0.14839 0.15991 0.174 0.174 0.162131 0.149734 0.143539 0.140714 0.139795 0.140492 0.143053 0.148993 0.161371 0.174 0.174 0.161823 0.147796 0.139009 0.133768 0.131875 0.133638 0.138747 0.147271 0.161179 0.174 0.174 0.1614 0.146318 0.135926 0.129189 0.126754 0.129202 0.13586 0.146012 0.160854 0.174 0.174 0.16124 0.145722 0.134838 0.127612 0.124972 0.12766 0.134892 0.145635 0.160919 0.174 0.174 0.161263 0.146112 0.13577 0.129073 0.126662 0.129127 0.135878 0.146168 0.161108 0.174 0.174 0.161476 0.147389 0.138666 0.133546 0.13175 0.133599 0.138857 0.147538 0.161545 0.174 0.174 0.161814 0.148863 0.142923 0.140402 0.139602 0.140425 0.143181 0.149333 0.161755 0.174 0.174 0.158004 0.147934 0.146873 0.147983 0.148438 0.147911 0.14683 0.147808 0.158066 0.174 0.174 0.126723 0.13938 0.149351 0.155505 0.157392 0.155334 0.148803 0.137551 0.118747 0.174 0.174 0.130599 0.140414 0.147283 0.150575 0.151433 0.150303 0.146646 0.139029 0.128499 0.174 0.174 0.162111 0.149694 0.14349 0.140653 0.139698 0.140407 0.143081 0.149122 0.161677 0.174 0.174 0.163245 0.148218 0.135616 0.127707 0.124948 0.127548 0.135283 0.147878 0.163043 0.174 0.174 0.162347 0.144799 0.127777 0.115636 0.111188 0.115566 0.127653 0.14459 0.162231 0.174 0.174 0.161728 0.142485 0.122772 0.107822 0.102144 0.107895 0.122831 0.142579 0.161711 0.174 0.174 0.161471 0.141716 0.121096 0.105198 0.0990672 0.105234 0.121215 0.141749 0.161612 0.174 0.174 0.161626 0.142419 0.122684 0.107761 0.102099 0.107817 0.122756 0.142456 0.161649 0.174 0.174 0.162149 0.144648 0.127682 0.115562 0.111146 0.115566 0.127668 0.14465 0.162198 0.174 0.174 0.162944 0.147958 0.135424 0.127639 0.124922 0.127546 0.135316 0.147847 0.162977 0.174 0.174 0.161738 0.149291 0.143155 0.14052 0.139573 0.14039 0.143028 0.148933 0.161826 0.174 0.174 0.130113 0.139484 0.146765 0.150201 0.151143 0.15004 0.14625 0.138561 0.127408 0.174 0.174 0.129254 0.137288 0.14251 0.144279 0.144532 0.14405 0.142012 0.136159 0.127367 0.174 0.174 0.161844 0.147743 0.138885 0.133541 0.131642 0.133441 0.138679 0.147433 0.161418 0.174 0.174 0.162325 0.144787 0.127681 0.115495 0.110995 0.115409 0.127518 0.14462 0.162311 0.174 0.174 0.161002 0.139531 0.115829 0.0966597 0.0890248 0.0967186 0.115831 0.139437 0.160877 0.174 0.174 0.160054 0.135994 0.107923 0.0832493 0.0726686 0.0834179 0.108099 0.136092 0.160081 0.174 0.174 0.15973 0.13485 0.105277 0.0785104 0.0665327 0.0786053 0.105435 0.134931 0.159711 0.174 0.174 0.160067 0.136088 0.107984 0.0833052 0.0726906 0.0833573 0.108038 0.136077 0.160036 0.174 0.174 0.160919 0.13949 0.115957 0.0968293 0.0891028 0.0967087 0.115823 0.139459 0.160912 0.174 0.174 0.162303 0.144779 0.127771 0.11561 0.111196 0.115482 0.127536 0.144564 0.162202 0.174 0.174 0.161606 0.147672 0.139008 0.133675 0.1319 0.133421 0.138626 0.147298 0.161533 0.174 0.174 0.128401 0.136498 0.142223 0.144263 0.144652 0.144088 0.142006 0.13648 0.128072 0.174 0.174 0.128093 0.134928 0.13892 0.139681 0.13957 0.139569 0.138578 0.134017 0.126339 0.174 0.174 0.161423 0.146223 0.135743 0.128879 0.126387 0.128886 0.135713 0.14615 0.161111 0.174 0.174 0.161696 0.142438 0.122596 0.107535 0.101771 0.107565 0.122649 0.14247 0.161679 0.174 0.174 0.160059 0.135996 0.107872 0.083139 0.0724539 0.0831993 0.107954 0.136086 0.160032 0.174 0.174 0.158942 0.131673 0.0975653 0.063582 0.0458629 0.0637063 0.0976531 0.131666 0.158959 0.174 0.174 0.158569 0.130218 0.0940261 0.0558562 0.0328709 0.0559311 0.0940201 0.130199 0.158532 0.174 0.174 0.15893 0.131753 0.0977258 0.0638295 0.0460648 0.0638011 0.0976346 0.131631 0.158861 0.174 0.174 0.160083 0.136128 0.10815 0.0833395 0.0727252 0.0832406 0.107871 0.135997 0.16002 0.174 0.174 0.161767 0.142642 0.122976 0.107856 0.102036 0.1077 0.122611 0.142343 0.161578 0.174 0.174 0.161326 0.146452 0.136191 0.129217 0.126595 0.129094 0.135576 0.146042 0.161275 0.174 0.174 0.126919 0.134394 0.138968 0.139944 0.139832 0.13971 0.138665 0.134448 0.127352 0.174 0.174 0.127577 0.133997 0.137577 0.138001 0.137762 0.137922 0.137375 0.133321 0.12619 0.174 0.174 0.16124 0.14564 0.134583 0.127244 0.124533 0.127267 0.134688 0.145684 0.161043 0.174 0.174 0.161414 0.141583 0.12088 0.104838 0.0985926 0.104838 0.121022 0.141738 0.16147 0.174 0.174 0.159735 0.134791 0.105135 0.0782511 0.0661518 0.0782757 0.105227 0.134814 0.159742 0.174 0.174 0.158536 0.130184 0.0939618 0.0557749 0.0326531 0.0558316 0.0940518 0.130269 0.158528 0.174 0.174 0.158188 0.128644 0.0900731 0.0462477 0.000256006 0.0461399 0.0900112 0.128561 0.158119 0.174 0.174 0.158518 0.13031 0.0941594 0.0562288 0.0333469 0.0559989 0.0940201 0.13017 0.158554 0.174 0.174 0.159806 0.135049 0.105478 0.0786944 0.0667169 0.0786183 0.105271 0.134877 0.1597 0.174 0.174 0.161615 0.141978 0.121425 0.105361 0.099045 0.105182 0.121031 0.141705 0.161421 0.174 0.174 0.161226 0.146069 0.135215 0.127961 0.125009 0.127538 0.134665 0.145634 0.161261 0.174 0.174 0.126366 0.133697 0.137844 0.138592 0.138086 0.138104 0.137471 0.133862 0.12719 0.174 0.174 0.127758 0.134606 0.138663 0.139469 0.139391 0.13944 0.138572 0.134186 0.126917 0.174 0.174 0.16126 0.146004 0.135547 0.128725 0.126208 0.128731 0.135631 0.14616 0.161143 0.174 0.174 0.161608 0.142332 0.12251 0.10745 0.101663 0.107388 0.122478 0.142375 0.161642 0.174 0.174 0.16007 0.135998 0.107867 0.0831193 0.0723504 0.0830717 0.10783 0.135972 0.160024 0.174 0.174 0.158944 0.131704 0.0977153 0.0638392 0.0460689 0.0637354 0.0976176 0.131577 0.158864 0.174 0.174 0.158579 0.130288 0.0942056 0.0561579 0.033419 0.0560485 0.0940603 0.130181 0.158575 0.174 0.174 0.158985 0.131803 0.0979045 0.0641291 0.046608 0.0640806 0.0977796 0.131752 0.159035 0.174 0.174 0.16009 0.136258 0.1083 0.083761 0.0731968 0.0836172 0.108222 0.136172 0.160138 0.174 0.174 0.161851 0.142792 0.123113 0.108196 0.102465 0.107991 0.122872 0.14265 0.161787 0.174 0.174 0.161372 0.146635 0.136438 0.129573 0.127093 0.129321 0.135875 0.146299 0.16154 0.174 0.174 0.126666 0.134597 0.139372 0.140306 0.14023 0.139917 0.138839 0.134853 0.127766 0.174 0.174 0.128472 0.136547 0.141943 0.143845 0.144218 0.143868 0.142025 0.136596 0.128519 0.174 0.174 0.16149 0.14727 0.138472 0.133243 0.131341 0.133182 0.1385 0.147534 0.161524 0.174 0.174 0.162171 0.144558 0.12753 0.115324 0.110812 0.115175 0.127358 0.144489 0.162202 0.174 0.174 0.160969 0.13947 0.115832 0.0967219 0.0889971 0.0965892 0.115728 0.139397 0.160916 0.174 0.174 0.160072 0.136198 0.108157 0.0835431 0.0728315 0.0834137 0.107986 0.136033 0.160084 0.174 0.174 0.159795 0.135052 0.105639 0.0789295 0.067133 0.0789247 0.1055 0.134979 0.159747 0.174 0.174 0.16011 0.136184 0.108386 0.0839531 0.0733193 0.0840125 0.108413 0.136194 0.160161 0.174 0.174 0.160988 0.139689 0.116236 0.0974065 0.089952 0.0975972 0.116461 0.139839 0.161107 0.174 0.174 0.162406 0.144986 0.128036 0.116104 0.111893 0.116233 0.128207 0.145083 0.162464 0.174 0.174 0.16178 0.148071 0.139426 0.134299 0.132592 0.134315 0.139226 0.14798 0.161921 0.174 0.174 0.127752 0.137117 0.142954 0.145024 0.145117 0.14473 0.142858 0.137341 0.129124 0.174 0.174 0.126492 0.13812 0.146165 0.149901 0.151018 0.150032 0.146759 0.139801 0.130412 0.174 0.174 0.161846 0.148848 0.142858 0.140195 0.139317 0.140079 0.14289 0.149337 0.161964 0.174 0.174 0.162979 0.147934 0.135292 0.127465 0.124753 0.127323 0.13514 0.147913 0.163007 0.174 0.174 0.162326 0.144774 0.127707 0.115681 0.111168 0.115557 0.127543 0.144581 0.162156 0.174 0.174 0.161777 0.14269 0.123021 0.10811 0.102478 0.108098 0.122843 0.142457 0.161695 0.174 0.174 0.161594 0.14191 0.121511 0.105713 0.0995951 0.105716 0.121451 0.141952 0.161573 0.174 0.174 0.161813 0.142682 0.123113 0.108519 0.102971 0.108646 0.123351 0.142809 0.16186 0.174 0.174 0.162381 0.144917 0.128106 0.116328 0.112305 0.116678 0.128519 0.145243 0.162543 0.174 0.174 0.1634 0.148255 0.13579 0.128357 0.125995 0.128892 0.136474 0.148675 0.16338 0.174 0.174 0.162153 0.149721 0.143883 0.141296 0.140694 0.141498 0.144043 0.150101 0.16231 0.174 0.174 0.128513 0.140335 0.147783 0.151257 0.152254 0.151177 0.147768 0.140493 0.130526 0.174 0.174 0.116252 0.136763 0.14886 0.15533 0.157259 0.155294 0.149088 0.138766 0.129435 0.174 0.174 0.158501 0.148022 0.146769 0.147694 0.148306 0.147584 0.146386 0.147373 0.158057 0.174 0.174 0.16186 0.149412 0.143108 0.140325 0.13942 0.140291 0.142403 0.148078 0.16055 0.174 0.174 0.161612 0.147636 0.13898 0.133724 0.131922 0.133589 0.138211 0.146846 0.161359 0.174 0.174 0.161355 0.146398 0.136308 0.129289 0.126937 0.129315 0.135664 0.145824 0.161122 0.174 0.174 0.161229 0.145996 0.13515 0.128146 0.125514 0.128031 0.135104 0.145796 0.16131 0.174 0.174 0.161242 0.146393 0.136332 0.129927 0.127606 0.12999 0.13648 0.146646 0.161645 0.174 0.174 0.161434 0.14754 0.139355 0.134486 0.132855 0.134931 0.139716 0.148357 0.161998 0.174 0.174 0.161688 0.14862 0.143223 0.1413 0.140845 0.141827 0.14443 0.150369 0.16243 0.174 0.174 0.157295 0.146261 0.146533 0.148639 0.149739 0.149301 0.148485 0.149947 0.161038 0.174 0.174 0.119816 0.137061 0.148967 0.155983 0.158617 0.156948 0.151025 0.140888 0.130562 0.174 0.174 0.112082 0.129749 0.149079 0.159285 0.162365 0.158978 0.147959 0.125513 0.0930459 0.174 0.174 0.129394 0.139892 0.149419 0.155197 0.157127 0.154828 0.147924 0.135254 0.116802 0.174 0.174 0.130771 0.139559 0.146637 0.149946 0.150867 0.149496 0.145163 0.136125 0.118434 0.174 0.174 0.128883 0.136579 0.142159 0.144018 0.144508 0.143665 0.141134 0.134682 0.121432 0.174 0.174 0.127131 0.134292 0.138872 0.140024 0.139901 0.139635 0.138364 0.133599 0.12254 0.174 0.174 0.126278 0.133483 0.137674 0.138491 0.138388 0.138383 0.137726 0.133823 0.12665 0.174 0.174 0.126326 0.134061 0.13893 0.14017 0.140432 0.140349 0.139297 0.135323 0.128227 0.174 0.174 0.127019 0.135744 0.142063 0.144701 0.145353 0.14508 0.143173 0.137743 0.129495 0.174 0.174 0.124839 0.136043 0.145491 0.15045 0.152054 0.151294 0.148043 0.140939 0.130989 0.174 0.174 0.102067 0.126952 0.145866 0.155008 0.158127 0.156706 0.151068 0.141624 0.130773 0.174 0.174 0.0958773 0.110246 0.143999 0.158491 0.163104 0.160726 0.151048 0.132218 0.108994 0.174 0.166522 0.139865 0.145332 0.152643 0.156368 0.156205 0.152184 0.14472 0.139434 0.164528 0.167208 0.149026 0.14702 0.148547 0.149584 0.149421 0.148054 0.146142 0.147783 0.166178 0.166994 0.148335 0.144603 0.143421 0.142708 0.142575 0.143002 0.143803 0.14728 0.166085 0.166775 0.14708 0.141823 0.138941 0.137082 0.136996 0.138655 0.14122 0.14622 0.165982 0.166617 0.146299 0.140204 0.136449 0.134018 0.133963 0.136281 0.139791 0.145613 0.166264 0.166468 0.146175 0.14009 0.13636 0.13393 0.133903 0.136268 0.139834 0.14571 0.166324 0.166398 0.146672 0.141452 0.138683 0.136894 0.13688 0.138649 0.141414 0.146683 0.166543 0.166397 0.147402 0.143826 0.142961 0.14241 0.142426 0.143019 0.144116 0.148035 0.16726 0.166314 0.146379 0.14565 0.147796 0.149141 0.149164 0.147938 0.146223 0.148078 0.167555 0.164945 0.13795 0.14404 0.151714 0.155711 0.155722 0.151687 0.143999 0.137975 0.165351 0.167234 0.148986 0.147003 0.148533 0.149564 0.149402 0.148096 0.146324 0.148176 0.166518 0.16921 0.15664 0.146224 0.141046 0.13884 0.138704 0.140644 0.145637 0.156051 0.169075 0.169183 0.155746 0.14211 0.132662 0.12776 0.12765 0.132347 0.141642 0.155348 0.169057 0.169029 0.154481 0.13859 0.126253 0.119334 0.119282 0.126076 0.138333 0.154268 0.168958 0.168926 0.153764 0.136728 0.122957 0.115002 0.114987 0.122914 0.136631 0.153722 0.16894 0.168906 0.153682 0.136644 0.122893 0.114958 0.114948 0.122889 0.136622 0.153738 0.168964 0.168978 0.154222 0.138336 0.126058 0.119214 0.119191 0.126026 0.138334 0.154346 0.169021 0.169127 0.155357 0.141699 0.132377 0.127605 0.127575 0.13232 0.141664 0.155436 0.169159 0.169249 0.156113 0.145595 0.140642 0.138627 0.138577 0.140569 0.145517 0.156012 0.169188 0.167631 0.148146 0.146186 0.147953 0.149199 0.149113 0.14778 0.145656 0.146667 0.166571 0.167052 0.148312 0.144541 0.14332 0.14257 0.142445 0.142976 0.144019 0.147802 0.166435 0.169186 0.155731 0.142053 0.132561 0.12762 0.127514 0.132251 0.141664 0.155424 0.169085 0.169006 0.153712 0.134892 0.118881 0.109594 0.109484 0.118588 0.134573 0.153502 0.168873 0.168726 0.151571 0.129009 0.107938 0.0946773 0.0946098 0.107767 0.128852 0.151464 0.168638 0.168574 0.150425 0.125981 0.102198 0.0865589 0.0865151 0.10212 0.125909 0.150401 0.168526 0.168563 0.150386 0.125935 0.102174 0.0865504 0.0865241 0.102109 0.125886 0.150372 0.168534 0.168702 0.151424 0.128896 0.107845 0.0946573 0.0946221 0.107765 0.128803 0.151415 0.168671 0.168956 0.153503 0.134682 0.118766 0.109588 0.109537 0.118647 0.134559 0.153419 0.168918 0.1692 0.155534 0.141789 0.132397 0.127622 0.127567 0.132277 0.141596 0.155299 0.169101 0.167426 0.148042 0.144122 0.14308 0.142444 0.142378 0.142897 0.143759 0.147434 0.166508 0.166823 0.147067 0.141708 0.138729 0.136816 0.136741 0.13851 0.141374 0.146706 0.166425 0.169028 0.154469 0.13848 0.126038 0.119038 0.118967 0.125853 0.138254 0.154312 0.168979 0.168729 0.15157 0.12896 0.107817 0.0944834 0.0943995 0.107615 0.128754 0.151429 0.168638 0.168356 0.148655 0.120858 0.0919602 0.07123 0.0711616 0.0918159 0.120732 0.148558 0.168297 0.168156 0.147125 0.116582 0.0830749 0.0564601 0.056395 0.0829583 0.116503 0.147082 0.168109 0.168153 0.147119 0.11659 0.0831045 0.0565265 0.0564649 0.082984 0.11651 0.14706 0.168109 0.168342 0.148615 0.120868 0.092032 0.0713824 0.0713147 0.091892 0.12072 0.148544 0.168314 0.168716 0.151513 0.128956 0.10789 0.0946463 0.0945967 0.107724 0.128754 0.151354 0.168683 0.169091 0.1545 0.13852 0.126169 0.119217 0.11914 0.125927 0.138207 0.154176 0.168965 0.167132 0.146991 0.141643 0.138834 0.136956 0.136836 0.138505 0.141294 0.146571 0.166523 0.166641 0.146285 0.140065 0.136176 0.133658 0.13361 0.13606 0.13988 0.146086 0.166512 0.168926 0.153723 0.136582 0.12267 0.114589 0.114549 0.122581 0.136483 0.153705 0.16894 0.168571 0.150407 0.125882 0.101984 0.0862096 0.0861365 0.101853 0.125767 0.150348 0.168523 0.168157 0.147125 0.116557 0.082981 0.0562717 0.0561935 0.082839 0.116453 0.147045 0.168105 0.167934 0.14539 0.111557 0.0717085 0.032535 0.0324084 0.0715713 0.111476 0.145313 0.167888 0.167927 0.145394 0.111597 0.0717984 0.0327308 0.0326126 0.0716502 0.111495 0.145307 0.167891 0.168161 0.147136 0.116661 0.0831887 0.0566363 0.056568 0.083023 0.116506 0.147056 0.168134 0.168578 0.150492 0.126069 0.102265 0.0865651 0.086516 0.102098 0.125855 0.150327 0.168545 0.169019 0.153934 0.136882 0.123043 0.114988 0.114882 0.122773 0.136511 0.153616 0.168916 0.166803 0.146361 0.140303 0.136573 0.134019 0.133879 0.136162 0.139893 0.146024 0.166612 0.166498 0.146151 0.139945 0.136066 0.133545 0.133507 0.135994 0.139861 0.146132 0.166717 0.168902 0.153631 0.136491 0.122589 0.114506 0.114471 0.1225 0.136444 0.153703 0.168957 0.168556 0.150363 0.125834 0.101948 0.0861633 0.0860817 0.10178 0.125715 0.150318 0.168517 0.16815 0.147098 0.116554 0.0830063 0.0563044 0.0562099 0.0828363 0.116433 0.147017 0.168121 0.167924 0.145381 0.111612 0.0717887 0.032731 0.0326273 0.0716518 0.111486 0.145316 0.167897 0.167923 0.1454 0.111657 0.0718897 0.033014 0.0329447 0.0718117 0.111565 0.145355 0.167914 0.168154 0.147161 0.116717 0.083271 0.0568232 0.0568089 0.0832091 0.116633 0.147135 0.168134 0.168582 0.150539 0.126128 0.102353 0.086766 0.0867217 0.102265 0.126004 0.150433 0.168569 0.169024 0.154001 0.136992 0.123184 0.115139 0.115062 0.12293 0.136686 0.153753 0.168927 0.166698 0.146411 0.140472 0.13675 0.134172 0.134002 0.136308 0.140052 0.146175 0.166772 0.166438 0.14668 0.141336 0.138431 0.136542 0.136485 0.138351 0.141338 0.146855 0.166971 0.168967 0.154202 0.138207 0.125796 0.118812 0.118737 0.125632 0.138128 0.1543 0.16903 0.168695 0.151423 0.128811 0.107676 0.094358 0.0942758 0.10747 0.128621 0.151354 0.168677 0.168339 0.148622 0.120844 0.0919997 0.071322 0.0712349 0.0918092 0.120692 0.14851 0.168309 0.168153 0.147155 0.116679 0.0832606 0.0568278 0.0567838 0.0831812 0.116571 0.147079 0.168126 0.168153 0.147174 0.116751 0.0833586 0.0570286 0.057089 0.0834181 0.116729 0.147164 0.168143 0.168343 0.148697 0.121008 0.0923023 0.0718992 0.0719986 0.0924705 0.121116 0.148746 0.168349 0.1687 0.151634 0.129125 0.108167 0.09513 0.0952138 0.108359 0.129259 0.151696 0.168726 0.169085 0.15467 0.138808 0.126551 0.11973 0.11971 0.126514 0.138754 0.154581 0.169051 0.166634 0.147221 0.142176 0.139354 0.137452 0.13734 0.139077 0.141816 0.147055 0.166961 0.166451 0.147399 0.143723 0.142761 0.142148 0.142084 0.142742 0.144048 0.148133 0.167334 0.169119 0.15534 0.141614 0.132203 0.127315 0.127217 0.131965 0.141502 0.155466 0.169193 0.168959 0.153532 0.134664 0.11867 0.109442 0.109375 0.118467 0.134424 0.153391 0.168921 0.168714 0.151546 0.128991 0.107981 0.0947914 0.0947377 0.107824 0.128796 0.151369 0.168668 0.168583 0.150497 0.126132 0.102446 0.0869545 0.0869655 0.102431 0.126034 0.150401 0.168552 0.168566 0.150513 0.12616 0.102568 0.0871869 0.087256 0.102713 0.126259 0.150536 0.168572 0.168692 0.151596 0.129114 0.108317 0.0954586 0.0956303 0.108695 0.129467 0.151748 0.168735 0.168946 0.153704 0.134958 0.119265 0.110429 0.110648 0.119746 0.13543 0.15395 0.169037 0.169225 0.155879 0.142254 0.133027 0.128458 0.12857 0.133327 0.142531 0.155962 0.16922 0.166783 0.148557 0.145009 0.14396 0.143357 0.143322 0.143866 0.144843 0.148348 0.167191 0.166633 0.146066 0.145522 0.147678 0.148968 0.148919 0.147695 0.146175 0.14863 0.167926 0.16933 0.156235 0.145583 0.140502 0.138433 0.138346 0.140296 0.145303 0.156186 0.169415 0.169221 0.155595 0.141812 0.132396 0.127584 0.127574 0.132203 0.14141 0.155315 0.169244 0.169098 0.154516 0.138564 0.126279 0.11946 0.119456 0.126132 0.138238 0.154209 0.169013 0.169024 0.153924 0.136906 0.123241 0.115376 0.11536 0.123175 0.136764 0.153734 0.168939 0.169006 0.153907 0.136936 0.123359 0.115635 0.115677 0.123495 0.137064 0.153934 0.168955 0.16905 0.154478 0.138677 0.126707 0.120176 0.120324 0.127088 0.139128 0.154761 0.169051 0.169151 0.155555 0.142013 0.133097 0.128721 0.128944 0.133683 0.14279 0.156066 0.169219 0.169457 0.156344 0.145856 0.141384 0.139768 0.139984 0.142055 0.146928 0.156908 0.16927 0.167193 0.148119 0.146531 0.148689 0.150262 0.150467 0.149333 0.147531 0.148894 0.167259 0.166458 0.139043 0.144416 0.151721 0.155552 0.155447 0.151252 0.143189 0.136049 0.164437 0.167718 0.148739 0.146399 0.147862 0.148972 0.148842 0.147287 0.144641 0.144485 0.166106 0.16722 0.148197 0.14416 0.14302 0.142399 0.142304 0.142479 0.142775 0.145256 0.166626 0.166894 0.147028 0.141601 0.138838 0.137037 0.136958 0.138415 0.140745 0.145315 0.166687 0.166665 0.146347 0.140212 0.136574 0.134231 0.134179 0.136399 0.139823 0.145355 0.166796 0.166506 0.146263 0.140242 0.1367 0.134475 0.134526 0.136802 0.140389 0.146522 0.166786 0.166457 0.146754 0.141593 0.13919 0.137728 0.137858 0.139613 0.142311 0.147368 