# vtk DataFile Version 5.1
vtk output
ASCII

DATASET UNSTRUCTURED_GRID
POINTS 931 float
2.33333 1 0.333333
1.83333 1 0.333333
1.33334 0.333333 1
2.83333 0 1
0.333333 0.333333 1
2.66667 1 0.333333
0.166666 0.166667 1
0 0 0
2.5 1 0.333333
2.16667 1 0.333333
0.833332 0.833333 1
1.5 0.333333 1
3 0 0.333333
2.83333 1 0.333333
1.16667 0 1
0.166666 0 0
2.33333 0.333333 1
1.83333 0.333333 1
2.5 0.666667 1
0.333333 0 0
2 0.333333 1
3 0.833333 0.333333
3 0.166667 0.333333
0.5 0 0
0 0.166667 1
2.33333 0.5 1
0.666667 0 0
1.5 0.833333 1
2.66667 0 1
2.5 0 1
0.833332 0 0
0 0.833333 1
2.83333 0.333333 1
3 0.5 0.833333
0.999997 0 0
2.16667 0.333333 1
3 0.5 0.5
3 0.166667 0.166667
1.16667 0 0
0.999997 0.333333 1
1.16667 0.666667 1
0.5 0.833333 1
1.33334 0 0
3 0 0.166667
3 0.166667 0
3 0 1
1.5 0 0
0.5 0.666667 1
0.999997 0.5 1
2.83333 0.5 1
1.66666 0 0
2.66667 0.333333 1
2.16667 0.666667 1
3 0.666667 0.5
1.83333 0 0
0.166666 0 1
1.83333 0.666667 1
1.16667 0.833333 1
2 0 0
2.16667 0.833333 1
1.66666 0.666667 1
3 0.333333 0
2.16667 0 0
0.166666 0.833333 1
3 0.166667 0.5
0.999997 0.666667 1
2.33333 0 0
0.333333 0.5 1
1.66666 0.5 1
0.333333 0.666667 1
2.5 0 0
1.66666 1 0.333333
2 1 0.333333
1.83333 0.833333 1
2.66667 0 0
3 0 0
3 0.333333 0.5
1.66666 0.833333 1
2.83333 0 0
1.33334 1 0.333333
0.999997 1 0.333333
0 0.166667 0
1.5 1 0.333333
1.16667 1 0.333333
3 1 0.5
0.166666 0.166667 0
2.5 0.833333 1
0.333333 0.166667 0
3 0.333333 0.333333
0.5 0.166667 0
2.33333 0.666667 1
0.666667 0.166667 0
3 1 0.333333
0.833332 0.166667 0
3 0.666667 0.833333
0.999997 0.166667 0
3 0.333333 0.166667
1.16667 0.166667 0
0.5 1 0.833333
1.33334 0.166667 0
3 1 0.166667
1.5 0.166667 0
2.83333 0.666667 1
1.66666 0.166667 0
0.833332 1 0.333333
1.83333 0.166667 0
0.5 1 0.666667
2 0.166667 0
3 0.5 0
2.16667 0.166667 0
0.999997 0.833333 1
2.33333 0.166667 0
0.333333 0.833333 1
2.5 0.166667 0
0.5 1 0.5
2.66667 0.166667 0
0.333333 1 0.5
2.83333 0.166667 0
3 1 0.833333
0 0.333333 0
0 0 1
3 0.166667 0.666667
0.833332 1 0.833333
0.166666 0.333333 0
0.5 1 0.333333
0.333333 0.333333 0
3 0.5 0.333333
0.5 0.333333 0
2.33333 0.833333 1
0.666667 0.333333 0
0.833332 1 0.666667
0.833332 0.333333 0
0.5 1 0.166667
0.999997 0.333333 0
3 0.5 0.166667
1.16667 0.333333 0
0 1 0.833333
1.33334 0.333333 0
0.833332 1 0.5
1.5 0.333333 0
2.83333 0.833333 1
1.66666 0.333333 0
2.16667 0.5 1
1.83333 0.333333 0
0 1 0.666667
2 0.333333 0
3 0.666667 0
2.16667 0.333333 0
0.333333 1 0.666667
2.33333 0.333333 0
0.333333 1 0.833333
2.5 0.333333 0
0 1 0.5
2.66667 0.333333 0
1.66666 0 1
2.83333 0.333333 0
0 1 1
0 0.5 0
3 1 0.666667
3 0.333333 0.666667
0.166666 0.5 1
0.166666 0.5 0
0 1 0.333333
0.333333 0.5 0
3 0.666667 0.333333
0.5 0.5 0
0.333333 1 0.333333
0.666667 0.5 0
0.833332 0.5 1
0.833332 0.5 0
0 1 0.166667
0.999997 0.5 0
3 0.666667 0.166667
1.16667 0.5 0
0.333333 1 0.166667
1.33334 0.5 0
1.5 0.5 1
1.5 0.5 0
0.666667 0.333333 1
1.66666 0.5 0
3 1 0
1.83333 0.5 0
1.5 0 1
2 0.5 0
3 0.833333 0
2.16667 0.5 0
2.33333 0 1
2.33333 0.5 0
0.666667 1 0.166667
2.5 0.5 0
1.66666 0.333333 1
2.66667 0.5 0
0.333333 0 1
2.83333 0.5 0
0 0.666667 0
0.166666 1 1
3 0.5 0.666667
0.833332 1 0.166667
0.166666 0.666667 0
0.999997 1 0.166667
0.333333 0.666667 0
1.16667 1 0.166667
0.5 0.666667 0
1.33334 1 0.166667
0.666667 0.666667 0
1.5 1 0.166667
0.833332 0.666667 0
1.66666 1 0.166667
0.999997 0.666667 0
1.83333 1 0.166667
1.16667 0.666667 0
2 1 0.166667
1.33334 0.666667 0
2.16667 1 0.166667
1.5 0.666667 0
2.33333 1 0.166667
1.66666 0.666667 0
2.5 1 0.166667
1.83333 0.666667 0
2.66667 1 0.166667
2 0.666667 0
2.83333 1 0.166667
2.16667 0.666667 0
2.5 0.333333 1
2.33333 0.666667 0
3 0.833333 0.166667
2.5 0.666667 0
0.999997 0 1
2.66667 0.666667 0
2.83333 0.666667 0
0 1 0
0 0.833333 0
0 0.5 1
3 0.666667 0.666667
0.166666 1 0
0.166666 0.833333 0
0.333333 1 0
0.333333 0.833333 0
0.5 1 0
0.5 0.833333 0
0.666667 1 0
0.666667 0.833333 0
0.833332 1 0
0.833332 0.833333 0
0.999997 1 0
0.999997 0.833333 0
1.16667 1 0
1.16667 0.833333 0
1.33334 1 0
1.33334 0.833333 0
1.5 1 0
1.5 0.833333 0
1.66666 1 0
1.66666 0.833333 0
1.83333 1 0
1.83333 0.833333 0
2 1 0
2 0.833333 0
2.16667 1 0
2.16667 0.833333 0
2.33333 1 0
2.33333 0.833333 0
2.5 1 0
2.5 0.833333 0
2.66667 1 0
2.66667 0.833333 0
2.83333 1 0
2.83333 0.833333 0
3 0.166667 0.833333
0 0 0.166667
3 0 0.5
0.833332 0.333333 1
1.5 0.666667 1
0.166666 0 0.166667
0.999997 1 0.5
0.333333 0 0.166667
1.16667 1 0.5
0.5 0 0.166667
1.33334 1 0.5
0.666667 0 0.166667
1.5 1 0.5
0.833332 0 0.166667
1.66666 1 0.5
0.999997 0 0.166667
1.83333 1 0.5
1.16667 0 0.166667
2 1 0.5
1.33334 0 0.166667
2.16667 1 0.5
1.5 0 0.166667
2.33333 1 0.5
1.66666 0 0.166667
2.5 1 0.5
1.83333 0 0.166667
2.66667 1 0.5
2 0 0.166667
2.83333 1 0.5
2.16667 0 0.166667
1.16667 0.333333 1
2.33333 0 0.166667
3 0.833333 0.5
2.5 0 0.166667
2 0 1
2.66667 0 0.166667
1.33334 0 1
2.83333 0 0.166667
3 0.333333 0.833333
0 0.166667 0.166667
2.66667 0.5 1
0.166666 0.166667 0.166667
0.333333 0.166667 0.166667
0.5 0.166667 0.166667
0.666667 0.166667 0.166667
0.833332 0.166667 0.166667
0.999997 0.166667 0.166667
1.16667 0.166667 0.166667
1.33334 0.166667 0.166667
1.5 0.166667 0.166667
1.66666 0.166667 0.166667
1.83333 0.166667 0.166667
2 0.166667 0.166667
2.16667 0.166667 0.166667
2.33333 0.166667 0.166667
2.5 0.166667 0.166667
2.66667 0.166667 0.166667
2.83333 0.166667 0.166667
0 0.333333 0.166667
2.66667 0.666667 1
0.166666 0.333333 0.166667
0.333333 0.333333 0.166667
0.5 0.333333 0.166667
0.666667 0.333333 0.166667
0.833332 0.333333 0.166667
0.999997 0.333333 0.166667
1.16667 0.333333 0.166667
1.33334 0.333333 0.166667
1.5 0.333333 0.166667
1.66666 0.333333 0.166667
1.83333 0.333333 0.166667
2 0.333333 0.166667
2.16667 0.333333 0.166667
2.33333 0.333333 0.166667
2.5 0.333333 0.166667
2.66667 0.333333 0.166667
2.83333 0.333333 0.166667
0 0.5 0.166667
2.66667 0.833333 1
0.166666 0.5 0.166667
0.333333 0.5 0.166667
0.5 0.5 0.166667
0.666667 0.5 0.166667
0.833332 0.5 0.166667
0.999997 0.5 0.166667
1.16667 0.5 0.166667
1.33334 0.5 0.166667
1.5 0.5 0.166667
1.66666 0.5 0.166667
1.83333 0.5 0.166667
2 0.5 0.166667
2.16667 0.5 0.166667
2.33333 0.5 0.166667
2.5 0.5 0.166667
2.66667 0.5 0.166667
2.83333 0.5 0.166667
0 0.666667 0.166667
0.666667 1 0.333333
0.166666 0.666667 0.166667
0.333333 0.666667 0.166667
0.5 0.666667 0.166667
0.666667 0.666667 0.166667
0.833332 0.666667 0.166667
0.999997 0.666667 0.166667
1.16667 0.666667 0.166667
1.33334 0.666667 0.166667
1.5 0.666667 0.166667
1.66666 0.666667 0.166667
1.83333 0.666667 0.166667
2 0.666667 0.166667
2.16667 0.666667 0.166667
2.33333 0.666667 0.166667
2.5 0.666667 0.166667
2.66667 0.666667 0.166667
2.83333 0.666667 0.166667
0 0.833333 0.166667
0.166666 1 0.166667
0.166666 0.833333 0.166667
0.333333 0.833333 0.166667
0.5 0.833333 0.166667
0.666667 0.833333 0.166667
0.833332 0.833333 0.166667
0.999997 0.833333 0.166667
1.16667 0.833333 0.166667
1.33334 0.833333 0.166667
1.5 0.833333 0.166667
1.66666 0.833333 0.166667
1.83333 0.833333 0.166667
2 0.833333 0.166667
2.16667 0.833333 0.166667
2.33333 0.833333 0.166667
2.5 0.833333 0.166667
2.66667 0.833333 0.166667
2.83333 0.833333 0.166667
0 0 0.333333
3 0 0.666667
0.166666 0.333333 1
0.833332 0.666667 1
0.166666 0 0.333333
0.999997 1 0.666667
0.333333 0 0.333333
1.16667 1 0.666667
0.5 0 0.333333
1.33334 1 0.666667
0.666667 0 0.333333
1.5 1 0.666667
0.833332 0 0.333333
1.66666 1 0.666667
0.999997 0 0.333333
1.83333 1 0.666667
1.16667 0 0.333333
2 1 0.666667
1.33334 0 0.333333
2.16667 1 0.666667
1.5 0 0.333333
2.33333 1 0.666667
1.66666 0 0.333333
2.5 1 0.666667
1.83333 0 0.333333
2.66667 1 0.666667
2 0 0.333333
2.83333 1 0.666667
2.16667 0 0.333333
0.5 0.333333 1
2.33333 0 0.333333
3 0.833333 0.666667
2.5 0 0.333333
0.666667 0 1
2.66667 0 0.333333
2.83333 0 0.333333
2.5 0.5 1
0 0.166667 0.333333
2 0.5 1
0.166666 0.166667 0.333333
0.333333 0.166667 0.333333
0.5 0.166667 0.333333
0.666667 0.166667 0.333333
0.833332 0.166667 0.333333
0.999997 0.166667 0.333333
1.16667 0.166667 0.333333
1.33334 0.166667 0.333333
1.5 0.166667 0.333333
1.66666 0.166667 0.333333
1.83333 0.166667 0.333333
2 0.166667 0.333333
2.16667 0.166667 0.333333
2.33333 0.166667 0.333333
2.5 0.166667 0.333333
2.66667 0.166667 0.333333
2.83333 0.166667 0.333333
0 0.333333 0.333333
2 0.666667 1
0.166666 0.333333 0.333333
0.333333 0.333333 0.333333
0.5 0.333333 0.333333
0.666667 0.333333 0.333333
0.833332 0.333333 0.333333
0.999997 0.333333 0.333333
1.16667 0.333333 0.333333
1.33334 0.333333 0.333333
1.5 0.333333 0.333333
1.66666 0.333333 0.333333
1.83333 0.333333 0.333333
2 0.333333 0.333333
2.16667 0.333333 0.333333
2.33333 0.333333 0.333333
2.5 0.333333 0.333333
2.66667 0.333333 0.333333
2.83333 0.333333 0.333333
0 0.5 0.333333
2 0.833333 1
0.166666 0.5 0.333333
0.333333 0.5 0.333333
0.5 0.5 0.333333
0.666667 0.5 0.333333
0.833332 0.5 0.333333
0.999997 0.5 0.333333
1.16667 0.5 0.333333
1.33334 0.5 0.333333
1.5 0.5 0.333333
1.66666 0.5 0.333333
1.83333 0.5 0.333333
2 0.5 0.333333
2.16667 0.5 0.333333
2.33333 0.5 0.333333
2.5 0.5 0.333333
2.66667 0.5 0.333333
2.83333 0.5 0.333333
0 0.666667 0.333333
0.666667 1 0.5
0.166666 0.666667 0.333333
0.333333 0.666667 0.333333
0.5 0.666667 0.333333
0.666667 0.666667 0.333333
0.833332 0.666667 0.333333
0.999997 0.666667 0.333333
1.16667 0.666667 0.333333
1.33334 0.666667 0.333333
1.5 0.666667 0.333333
1.66666 0.666667 0.333333
1.83333 0.666667 0.333333
2 0.666667 0.333333
2.16667 0.666667 0.333333
2.33333 0.666667 0.333333
2.5 0.666667 0.333333
2.66667 0.666667 0.333333
2.83333 0.666667 0.333333
0 0.833333 0.333333
0.166666 1 0.333333
0.166666 0.833333 0.333333
0.333333 0.833333 0.333333
0.5 0.833333 0.333333
0.666667 0.833333 0.333333
0.833332 0.833333 0.333333
0.999997 0.833333 0.333333
1.16667 0.833333 0.333333
1.33334 0.833333 0.333333
1.5 0.833333 0.333333
1.66666 0.833333 0.333333
1.83333 0.833333 0.333333
2 0.833333 0.333333
2.16667 0.833333 0.333333
2.33333 0.833333 0.333333
2.5 0.833333 0.333333
2.66667 0.833333 0.333333
[...]
POINT_DATA 931
SCALARS weights float 1
LOOKUP_TABLE default
3.85799 0.771615 3.85799 0.3858 3.85803 3.85807 3.85802 0.964509 0.771615 0.771598 3.858 0.771598 1.929 0.771598 0.385809 0.385804 3.85799 0.771615 0.771615 1.92902 3.85808 0.771596 0.771596 0.385804 0.385802 0.771601 1.92901 3.85799 1.92904 0.385809 0.385801 0.385802 0.771598 3.85799 1.92904 0.771598 3.858 3.85798 0.385809 3.85808 0.771615 3.85803 1.929 0.385799 0.385799 0.964501 0.3858 0.771607 0.771618 3.858 1.929 3.85807 0.771598 0.771598 0.385809 0.385804 0.771615 3.85808 1.92904 3.85799 3.85799 1.929 0.3858 3.85803 3.85799 3.85808 1.929 0.771609 0.7716 3.85803 0.385809 3.85799 3.85808 3.85808 1.92904 0.964501 0.771598 0.771598 0.3858 3.85799 3.85808 0.385802 0.771598 0.771615 0.3858 3.85802 3.85808 0.771607 3.85798 3.85803 3.85799 0.771603 1.929 3.858 0.771596 0.771615 0.771596 3.85808 3.85803 0.771598 0.385799 3.85799 0.771598 0.771598 0.7716 3.85808 0.771607 0.771615 0.3858 3.85799 0.771615 0.771598 0.771607 3.85808 3.85805 0.771615 0.771609 3.85799 0.385799 1.92901 0.964509 0.771596 3.858 0.771605 0.771607 3.85803 0.771598 0.771607 0.771598 3.85802 0.7716 0.7716 3.85803 3.85808 3.85799 0.771616 0.385802 3.85799 3.85801 0.771598 3.85799 3.85799 3.858 0.771615 1.92901 3.85808 1.929 0.771598 3.85803 3.85799 0.771607 0.771616 0.385804 3.85807 1.929 0.771598 0.964509 0.385804 1.929 3.85798 3.85804 3.85804 1.92901 0.771609 3.85798 3.85805 3.85803 0.771605 3.85801 3.85801 0.385802 0.771618 0.771596 3.85809 0.771607 0.7716 3.858 3.858 3.85802 0.7716 0.964501 3.85809 0.3858 0.771618 0.385799 3.858 1.929 0.771601 0.771603 3.85809 3.85799 0.771617 1.92902 3.858 1.92901 0.385804 0.771598 3.858 0.771605 0.771615 3.85803 3.85808 0.771607 0.771598 3.85802 3.85799 0.7716 0.771598 3.85808 3.85808 0.771616 0.771615 3.85799 3.85799 0.771598 0.771598 3.85799 3.85808 0.771615 0.771615 3.85808 3.85799 0.771598 0.771615 3.85799 3.85798 0.771616 1.92904 3.85807 0.771598 0.964509 0.385803 0.385804 3.85798 0.385804 3.85803 1.92902 0.771607 0.385804 3.85803 1.92901 0.771603 0.385801 3.858 1.92904 0.771615 0.385809 3.85808 1.929 0.771598 0.3858 3.85799 1.929 0.771598 0.385809 3.85808 1.92904 0.771615 0.3858 3.85799 1.929 0.771598 0.385809 3.85808 1.92904 0.771615 0.3858 3.85799 3.85798 0.385802 0.3858 0.7716 0.771598 3.85802 0.771618 0.771607 3.85809 3.85803 0.7716 0.771603 3.858 3.858 0.7716 0.771615 3.85809 3.85808 0.771617 0.771598 3.858 3.85799 0.771601 0.771598 3.85809 3.85808 0.771617 0.771615 3.858 3.85799 0.771615 0.771598 3.85799 3.85808 1.92904 0.771615 1.929 3.85799 0.771596 3.85801 0.771617 1.54321 7.71604 1.54321 7.71601 1.54319 7.71613 1.54323 7.71596 1.54319 7.71596 1.54323 7.71613 1.54319 7.71596 1.54323 7.71613 1.54319 0.771603 3.85807 7.71603 1.54321 7.71604 1.5432 7.71597 1.54323 7.71613 1.54319 7.71596 1.54319 7.71613 1.54323 7.71596 1.54319 7.71613 1.54323 7.71596 3.85802 0.771615 1.54321 7.71607 1.54321 7.71603 1.5432 7.71615 1.54323 7.71598 1.5432 7.71598 1.54323 7.71615 1.5432 7.71598 1.54323 7.71615 1.5432 0.771603 3.85802 7.71603 1.54321 7.71604 1.5432 7.71598 1.54323 7.71613 1.54319 7.71595 1.54319 7.71613 1.54323 7.71596 1.54319 7.71613 1.54323 7.71595 3.85801 3.85802 1.54321 7.71604 1.54321 7.71601 1.54319 7.71613 1.54323 7.71596 1.54319 7.71596 1.54323 7.71613 1.54319 7.71596 1.54323 7.71613 1.54319 1.92901 1.929 0.771605 0.7716 0.771605 3.85808 3.85803 0.771615 0.771607 3.85799 3.85802 0.771598 0.7716 3.85799 3.85808 0.771615 0.771616 3.85808 3.85799 0.771598 0.771598 3.85799 3.85799 0.771615 0.771615 3.85807 3.85808 0.771598 0.771598 0.771607 3.85799 0.771596 0.771616 1.92901 3.85807 0.771598 3.85809 0.771603 0.771617 7.71603 1.54321 7.71604 1.5432 7.71597 1.54323 7.71613 1.54319 7.71596 1.54319 7.71613 1.54323 7.71596 1.54319 7.71613 1.54323 7.71596 3.85801 3.85808 1.54321 7.71604 1.54321 7.71601 1.54319 7.71613 1.54323 7.71596 1.54319 7.71596 1.54323 7.71613 1.54319 7.71596 1.54323 7.71613 1.54319 0.771605 0.771615 7.71605 1.54321 7.71607 1.54321 7.716 1.54323 7.71616 1.5432 7.71598 1.5432 7.71615 1.54323 7.71598 1.5432 7.71616 1.54323 7.71598 3.85801 0.771605 1.54321 7.71604 1.54321 7.71601 1.54319 7.71613 1.54323 7.71596 1.54319 7.71596 1.54323 7.71613 1.54319 7.71596 1.54323 7.71613 1.54319 0.771603 0.771605 7.71603 1.54321 7.71604 1.5432 7.71598 1.54323 7.71613 1.54319 7.71596 1.54319 7.71613 1.54323 7.71596 1.54319 7.71613 1.54323 7.71596 0.385804 0.385799 1.92901 0.771605 3.85804 0.771615 0.771609 3.85808 3.85805 0.771598 0.771605 3.85799 3.85801 0.771598 0.771618 3.85808 3.85809 0.771615 0.7716 3.85799 3.858 0.771598 0.7716 3.85808 3.85809 0.771615 0.771618 3.85799 3.858 0.771601 3.85798 3.85809 0.771617 0.964501 3.858 3.85809 3.85802 0.7716 1.54321 7.71607 1.54321 7.71603 1.5432 7.71615 1.54323 7.71598 1.5432 7.71598 1.54323 7.71615 1.5432 7.71598 1.54323 7.71615 1.5432 0.771605 3.85799 7.71605 1.54321 7.71607 1.54321 7.716 1.54323 7.71616 1.5432 7.71598 1.5432 7.71615 1.54323 7.71598 1.5432 7.71616 1.54323 7.71598 3.85804 0.771598 1.54321 7.71609 1.54322 7.71605 1.5432 7.71618 1.54324 7.716 1.5432 7.716 1.54324 7.71617 1.5432 7.71601 1.54324 7.71617 1.5432 0.771605 3.85802 7.71605 1.54321 7.71607 1.54321 7.716 1.54323 7.71616 1.5432 7.71598 1.5432 7.71615 1.54323 7.71598 1.5432 7.71616 1.54323 7.71598 3.85803 3.85804 1.54321 7.71607 1.54321 7.71603 1.5432 7.71615 1.54323 7.71598 1.5432 7.71598 1.54323 7.71615 1.5432 7.71598 1.54323 7.71615 1.5432 1.92901 0.3858 0.385809 1.92901 0.771605 1.92902 3.85803 0.385804 0.771607 1.92901 3.85802 0.385801 0.7716 1.92904 3.85808 0.385809 0.771616 1.929 3.85799 0.3858 0.771598 1.929 3.85799 0.385809 0.771615 1.92904 3.85808 0.3858 0.771598 1.929 3.85799 0.385809 0.771616 1.92904 3.85807 0.3858 0.771598 3.85809 0.771603 0.771605 7.71603 1.54321 7.71604 1.5432 7.71597 1.54323 7.71613 1.54319 7.71596 1.54319 7.71613 1.54323 7.71596 1.54319 7.71613 1.54323 7.71595 3.85801 3.85802 1.54321 7.71604 1.54321 7.71601 1.54319 7.71613 1.54323 7.71596 1.54319 7.71596 1.54323 7.71613 1.54319 7.71596 1.54323 7.71613 1.54319 0.771605 0.771603 7.71605 1.54321 7.71607 1.54321 7.716 1.54323 7.71616 1.5432 7.71598 1.5432 7.71615 1.54323 7.71598 1.5432 7.71616 1.54323 7.71598 3.85801 0.771603 1.54321 7.71604 1.54321 7.71601 1.54319 7.71613 1.54323 7.71596 1.54319 7.71596 1.54323 7.71613 1.54319 7.71596 1.54323 7.71613 1.54319 0.771603 0.771605 7.71603 1.54321 7.71604 1.5432 7.71597 1.54323 7.71613 1.54319 7.71596 1.54319 7.71613 1.54323 7.71596 1.54319 7.71613 1.54323 7.71596 0.385803 0.385801 0.385804 0.385799 3.85803 0.771607 0.771607 3.85803 3.85803 0.771603 0.771603 3.858 3.858 0.771615 0.771615 3.85808 3.85808 0.771598 0.771598 3.85799 3.85799 0.771598 0.771598 3.85808 3.85808 0.771615 0.771615 3.85799 3.85799 0.771598 0.771598 3.85808 3.85808 0.771615 0.771615 3.85799 3.85799 3.85805 3.85801 1.929 1.54321 7.71604 1.54321 7.71601 1.54319 7.71613 1.54323 7.71596 1.54319 7.71596 1.54323 7.71613 1.54319 7.71596 1.54323 7.71613 1.54319 0.771603 0.3858 7.71603 1.54321 7.71604 1.5432 7.71598 1.54323 7.71613 1.54319 7.71596 1.54319 7.71613 1.54323 7.71596 1.54319 7.71613 1.54323 7.71596 3.85803 1.929 1.54321 7.71607 1.54321 7.71603 1.5432 7.71616 1.54323 7.71598 1.5432 7.71598 1.54323 7.71615 1.5432 7.71598 1.54323 7.71615 1.5432 0.771603 0.385799 7.71603 1.54321 7.71604 1.5432 7.71597 1.54323 7.71613 1.54319 7.71596 1.54319 7.71613 1.54323 7.71596 1.54319 7.71613 1.54323 7.71596 3.85801 3.85803 1.54321 7.71604 1.54321 7.71601 1.54319 7.71613 1.54323 7.71596 1.54319 7.71596 1.54323 7.71613 1.54319 7.71596 1.54323 7.71613 1.54319 
VECTORS u float
-0.0157161 -0.0474407 0.438883  -0.0153161 0.0271622 0.173604  0.014758 0.0817121 0.0206217  -0.00107932 -0.0758129 -0.91047  0.0115543 0.578014 -0.16766  -0.0115519 -0.167692 0.578193  0.00558223 0.76959 -0.0857048  0 -2.98023e-07 1  -0.0142918 -0.102134 0.513193  -0.0159039 -0.00703382 0.354619  -0.0185083 0.249119 -0.342919  0.0154347 -0.00831494 -0.00269061  0 0.666667 -0.333333  -0.00628114 -0.246926 0.628303  -0.000309467 0.201883 0.142955  0.0011842 -0.0760339 0.910192  0.0150542 -0.326983 -0.316094  0.0152384 -0.168701 -0.0934286  -0.014539 -0.513052 -0.102185  0.00214109 -0.137491 0.809696  0.0143664 -0.234518 -0.157827  0 -0.166666 0.5  0 0.5 -0.166666  -8.19564e-06 -0.181654 0.688062  0 0.833333 -0.166667  -0.000336409 -0.383733 -0.18119  -0.00146049 -0.205742 0.565019  -0.0178043 0.0104901 -0.00309837  -0.00224233 -0.137422 -0.810142  5.53131e-05 -0.181576 -0.688529  -0.0010345 -0.205376 0.440883  0 0.166667 -0.833333  0.00684834 -0.35447 -0.581956  0 -0.333333 -0.333333  -0.00065577 -0.186214 0.31836  0.0155344 -0.287903 -0.233511  0 -8.9407e-08 1.19209e-07  0 0.666666 -1.04308e-07  -0.000162601 -0.142867 0.202074  0.0149118 0.266048 0.0183653  -0.0153071 0.168759 -0.0933872  -0.0189993 0.265588 -0.553503  0.000168681 -0.0823123 0.0934557  0 0.833333 -0.166667  0 0.833333 0.166667  0 -3.8743e-07 -1  0.000110745 -0.000990121 -0.000984959  -0.0146692 0.351324 -0.404129  0.000335693 0.250648 -0.0689979  0.000302553 -0.491952 -0.410805  -5.73397e-05 0.0933654 -0.0821511  0.0123651 -0.360005 -0.492392  -0.0162208 -0.35452 -0.00703591  0 -0.166667 0.166667  0.000407338 0.202095 -0.142788  0.0011214 0.910245 0.0760134  -0.0156275 -0.173424 0.0271878  -0.0176938 0.160474 -0.151979  0.000765324 0.318411 -0.186143  -0.0178046 -0.391952 0.10129  -0.0145966 -0.0817986 0.0205683  0 0.666667 0.333333  0.00119352 0.441232 -0.205391  -0.00466055 0.214741 -0.749132  0 0.333333 -0.333333  -0.0142276 0.234422 -0.157741  0.00144577 0.565268 -0.205688  -0.000371546 0.469815 -0.329654  -5.94854e-05 -0.0870775 -0.00926894  -0.0123967 0.359914 -0.492262  0.000100613 0.688459 -0.181465  -0.014537 0.0205176 0.0819609  -0.0146716 0.0180414 0.266165  -0.0177702 -0.181564 0.0849924  -0.00219965 0.810065 -0.137304  0 1 -1.78814e-07  0 0.166667 -0.166667  -0.0187637 -0.0812872 0.0478199  -0.00106382 0.910507 -0.0757816  -0.0144171 -0.0406287 -0.0918316  -0.0141971 -0.157716 -0.234279  0 -0.166667 0.833333  -0.0151995 -0.00281775 -0.00810453  -0.0150272 -0.093417 -0.16852  0 -0.5 0.5  -0.0046524 -0.21485 0.749138  -0.0192826 -0.596163 0.0438995  -0.0127839 -0.248549 0.655017  0 0.333334 -2.98023e-08  -0.0190158 -0.265645 0.553537  -0.015795 -0.43881 -0.0475357  -0.019715 -0.265758 0.448263  0 -0.333333 0.666667  -0.0184543 -0.249156 0.342996  0 -0.5 -0.166666  -0.0189317 -0.21267 0.245096  0 0.5 0.166666  -0.0176101 -0.160476 0.152179  0.0193484 0.0439482 -0.596223  -0.0186203 -0.0918189 0.0727764  0 -0.166667 0.833333  -0.0178658 -0.0103791 0.00350248  -0.00648928 -0.628208 -0.246922  -0.0187771 0.0813805 -0.0475743  -0.015336 -0.233517 -0.287775  -0.0179116 0.181535 -0.0848342  0.0147472 -0.102109 -0.513086  -0.0187919 0.285145 -0.10104  0 0.5 0.5  -0.0179658 0.391996 -0.101242  -0.0191016 0.21262 -0.244976  -0.0194752 0.494959 -0.0808876  -0.0129016 0.248452 -0.655007  -0.0194371 0.596298 -0.0438065  -2.11e-05 -0.251574 -0.432976  -0.0134897 0.687087 0.0144703  -7.35819e-05 -0.329733 -0.469895  -0.00551891 0.76971 0.0857427  0 -0.833333 0.166667  0 -0.333333 0.666667  0 1 2.38419e-07  0 0.166666 -0.5  0.0178953 0.10132 -0.391751  -0.00682807 -0.35442 0.581939  -0.0144775 -0.404177 -0.351333  -0.0124082 -0.359868 0.492368  0 0.166667 0.166667  -0.0144443 -0.351379 0.40414  -0.0194135 -0.494853 0.0809479  -0.0149044 -0.326911 0.316047  0.0164246 -0.0069313 -0.354443  -0.0152981 -0.287847 0.233576  -0.0189394 -0.553563 -0.265589  -0.0141967 -0.23446 0.157887  0 0.333333 0.333333  -0.0151229 -0.168745 0.0936109  0 -0.166667 -0.833333  -0.0146025 -0.0921101 0.0408986  0.000737846 -0.119739 -0.321914  -0.0153866 -0.00829187 0.00304491  -0.00555754 -0.769614 -0.0856717  -0.0147216 0.0818422 -0.020257  -0.000594139 -0.322064 -0.119856  -0.0156047 0.17344 -0.0270568  0 -0.333333 -0.666667  -0.0150361 0.266135 -0.0180347  0 0.333333 0.666667  -0.016243 0.354604 0.00705869  0.0116264 -0.167774 -0.578065  -0.0160096 0.438837 0.0476242  0.0137578 -0.0144199 -0.686921  -0.0144706 0.513138 0.102252  0 -0.5 -0.5  -0.0116098 0.578069 0.167778  -5.48363e-05 -0.082424 -0.0933387  -0.00631189 0.628279 0.246911  0 2.38419e-07 -1  0 -0.5 0.5  0 -0.666667 0.333333  0 -1.49012e-07 -0.333334  -0.000414446 0.491923 -0.410767  -0.000294358 -0.491865 0.410708  0 -0.666667 -0.333333  -4.79817e-05 -0.469821 0.329703  0 5.96046e-08 0.333334  8.88705e-05 -0.432958 0.251575  -0.0124007 -0.492405 -0.35989  0.000558734 -0.383663 0.18122  0.000693321 0.322001 -0.119801  0.000798523 -0.321938 0.119882  0 -0.833333 -0.166667  0.000624537 -0.250599 0.0692756  0 0.166666 0.5  0.000126481 -0.171266 0.0326533  -0.0127333 -0.65508 -0.248494  0.000162125 -0.0870998 0.00953643  8.39233e-05 -3.14415e-05 -0.00193197  -0.000101209 2.41399e-05 0.00229815  0.0159469 0.43869 -0.0473521  -6.67572e-06 0.0870818 0.00947109  0 2.38419e-07 1  -0.000211239 0.171416 0.0326342  1.41859e-05 -0.00125844 0.00102723  -0.000414968 0.250638 0.0692098  0 0.166667 0.833333  -0.000899315 0.322033 0.119939  0.00144482 -0.205829 -0.565156  -0.00028491 0.383717 0.181229  -0.0196682 -0.448189 -0.265676  -4.91142e-05 0.433039 0.251701  0.0145304 -0.0921048 -0.0405866  0.000393867 0.469905 0.329659  0.00203237 0.809751 0.13745  0.000359058 0.491958 0.410796  0 -0.666667 0.333333  0.00115129 0.0759821 -0.910195  0 -0.166667 -0.166667  -0.018432 -0.342961 -0.249064  0.00661854 -0.628297 0.246893  -0.0189027 -0.244968 -0.212469  0.0115999 -0.57808 0.167737  -0.01759 -0.151924 -0.160236  0.0147534 -0.513128 0.102173  -0.0186104 -0.0725224 -0.0916565  0.0159886 -0.438703 0.047496  -0.0178636 -0.00325608 -0.010296  0.0164089 -0.354535 0.00707659  -0.0186852 0.047771 0.0814659  0.0148522 -0.266045 -0.0179896  -0.0177395 0.0849586 0.181711  0.0157281 -0.17347 -0.0269979  -0.0185877 0.101158 0.285247  0.0146179 -0.0817641 -0.020278  -0.0177238 0.101372 0.391907  0.0155458 0.00828862 0.00292239  -0.0192327 0.0810647 0.494941  0.0144771 0.0921425 0.0407064  -0.0191905 0.0440105 0.596294  0.0152712 0.168769 0.0934819  -0.0133414 -0.0144159 0.687042  0.0140657 0.234513 0.157752  -0.00549912 -0.0857503 0.769697  0.0154948 0.287866 0.233517  0.0145555 -0.351453 -0.404181  0.0148752 0.326982 0.31601  0 1.19209e-07 0.666666  0.0146654 0.351427 0.404103  -0.000756145 0.318231 0.18629  0.0123281 0.359925 0.492299  0.00702262 0.354479 0.581883  0 -1 -2.98023e-07  0 -0.833333 0.166667  0 0.5 -0.5  0 -0.333334 1.78814e-07  0.00124963 -0.910258 -0.0759743  0.00563289 -0.769611 0.0857114  0.00224897 -0.809758 -0.137426  0.0138089 -0.687057 0.0143932  9.5427e-05 -0.688082 -0.181595  0.019429 -0.596255 -0.0438968  -0.00139469 -0.564955 -0.205711  0.0196231 -0.494847 -0.0809137  -0.000953197 -0.440812 -0.205287  0.0178685 -0.391831 -0.101141  -0.000601172 -0.318228 -0.186021  0.0189544 -0.285126 -0.100976  -0.000183344 -0.201847 -0.142675  0.0178987 -0.181553 -0.0847431  8.33273e-05 -0.0932207 -0.082249  0.0189385 -0.0813456 -0.0476687  3.95775e-05 0.00120211 -0.000942949  0.0177958 0.0103831 0.00325692  -0.000136137 0.0824153 0.0933946  0.0188013 0.0918376 0.0725882  0.000374675 0.143002 0.202244  0.0176249 0.160516 0.152061  0.000793219 0.186267 0.318477  0.0191803 0.212689 0.245035  0.00132084 0.205454 0.441085  0.0185106 0.249149 0.342991  0.00160789 0.205855 0.56514  0.0199671 0.265801 0.448243  0.000313997 0.181632 0.688321  0.0190172 0.265643 0.553535  -0.00197577 0.13738 0.809957  0.0129857 0.24856 0.654977  -0.000935078 0.075809 0.91042  0.00460625 0.214803 0.749134  0 -3.12924e-07 -0.666666  0 0.166667 0.833333  0 0.5 -0.5  0.0161982 0.354558 -0.00689191  -0.0154818 0.00837547 -0.00274187  0.00555736 0.0856773 0.769557  0.000618696 -0.0690633 -0.250508  0.0135341 0.0143561 0.687078  0.000178576 -0.0323573 -0.171185  0.0192617 -0.0439336 0.596256  0.000277519 -0.00926083 -0.0868692  0.0193819 -0.0810041 0.495029  6.75917e-05 -0.00193477 0.000202596  0.0177435 -0.101225 0.391939  0.000181198 -0.00921148 0.0872473  0.0187722 -0.101211 0.285343  -1.68085e-05 -0.0323448 0.171531  0.0178871 -0.0849823 0.181791  -0.00016427 -0.0690714 0.250727  0.0188928 -0.0478352 0.0815807  -0.000598431 -0.119778 0.322255  0.0179316 0.00330312 -0.0102042  -9.32217e-05 -0.181169 0.38381  0.0188407 0.0725421 -0.0916799  1.90735e-05 -0.251688 0.433064  0.017792 0.152044 -0.160329  0.000430822 -0.329689 0.469889  0.0191576 0.244956 -0.212644  0.000376463 -0.410805 0.492049  0.018508 0.343085 -0.249226  0.0156183 0.173492 0.0273719  0.0198114 0.448268 -0.265781  0 -0.333333 0.333333  0.0189264 0.55367 -0.265534  0.000712395 -0.186161 -0.318374  0.0128081 0.655131 -0.248591  -2.52724e-05 0.0931627 0.0824085  0.00462818 0.749305 -0.214858  0 -0.166666 -0.5  0 -2.23517e-07 0.666666  0.000169516 -0.469822 -0.329689  0.000730976 -0.0516777 0.606756  0.00149325 -0.0926585 0.538885  0.000832558 -0.123085 0.460453  0.000267208 -0.139177 0.378025  0.000232518 -0.139619 0.294519  0.00030899 -0.126282 0.212296  0.000182629 -0.0975283 0.134016  0.000107765 -0.0563837 0.0615111  4.66108e-05 -0.00234701 -0.00212297  2.8491e-05 0.061318 -0.0561891  -0.000114918 0.133782 -0.0973404  -0.000239015 0.212162 -0.126151  -0.000352621 0.294411 -0.139607  -0.000492334 0.377917 -0.139183  -0.000972748 0.460381 -0.123079  -0.0014658 0.538909 -0.0927011  -0.000762939 0.606782 -0.051772  0 -0.166666 0.5  -0.011554 -0.578021 -0.167725  0.000170872 -0.188873 0.442748  -0.0017997 -0.203537 0.380987  -0.00335503 -0.206507 0.31678  -0.00352556 -0.19778 0.251685  -0.00325871 -0.178416 0.189388  -0.00367934 -0.147356 0.130992  -0.00368953 -0.107679 0.0792686  -0.00398052 -0.0584062 0.0353044  -0.0038693 -0.00329193 0.000372022  -0.00415075 0.0581594 -0.0240341  -0.004035 0.121864 -0.0379824  -0.00446725 0.187987 -0.0397042  -0.00450468 0.252891 -0.030714  -0.00502372 0.315774 -0.00953309  -0.00511527 0.37367 0.0219467  -0.00350142 0.425155 0.0638716  -0.00150466 0.467823 0.112044  0 -0.333333 0.333333  -0.0135615 -0.686963 -0.0143818  0.000377834 -0.328502 0.277504  0.000677824 -0.313512 0.221502  0.00073123 -0.289683 0.169681  0.000777423 -0.256173 0.121984  0.000596941 -0.215005 0.0801008  0.000367641 -0.167048 0.0466015  0.00024569 -0.114386 0.021666  9.78708e-05 -0.0580212 0.00668983  1.33514e-05 2.19941e-05 0.0013582  -0.000100374 0.0581243 0.00662489  -0.000246406 0.114401 0.0216077  -0.000426769 0.167152 0.0466459  -0.000551939 0.215011 0.0800525  -0.000675678 0.256208 0.121981  -0.000643015 0.289713 0.169654  -0.000665426 0.313606 0.221496  -0.000340939 0.328546 0.2774  0 -0.5 0.166666  -0.0149895 -0.315944 -0.32689  0.00147706 -0.467816 0.112108  0.00354096 -0.425174 0.0639294  0.00513744 -0.373715 0.0219848  0.00500536 -0.315767 -0.00945507  0.00439221 -0.252786 -0.0306467  0.00445032 -0.187938 -0.039609  0.0040648 -0.121798 -0.0378868  0.00420749 -0.0581099 -0.0240158  0.00390637 0.00339144 0.000313655  0.00398338 0.0583997 0.0352295  0.00361001 0.10774 0.0792273  0.00371218 0.147356 0.130891  0.00335193 0.178412 0.189366  0.00356412 0.197796 0.251651  0.00328398 0.206543 0.316843  0.00178432 0.20358 0.380892  -0.000165939 0.188901 0.442696  0 -0.666666 -2.23517e-07  -0.00463371 -0.749239 -0.214775  0.000855386 -0.606753 -0.0516687  0.00157961 -0.538877 -0.0926497  0.000956178 -0.460403 -0.123048  0.000337124 -0.377901 -0.139107  0.00031811 -0.294364 -0.139483  0.000312448 -0.2121 -0.126018  0.000231624 -0.133752 -0.0972739  0.000109911 -0.0612198 -0.0561862  2.68221e-05 0.00237572 -0.00223802  -9.90629e-05 0.0563863 0.0612893  -0.00010407 0.0975303 0.13389  -0.00016129 0.126206 0.212203  -0.000167131 0.13963 0.294496  -0.000293493 0.139256 0.37801  -0.000825167 0.12313 0.460453  -0.00145245 0.0926591 0.538836  -0.00067091 0.0517108 0.606752  0 0.333333 0.666667  0 0.333333 -0.666667  0.00638476 0.628298 -0.246885  -0.0155477 0.287832 -0.233534  0.00635076 0.246885 0.628318  0.0149441 0.0183016 -0.26601  0.0114836 0.167753 0.578097  0.0158486 0.0273055 -0.17333  0.0144218 0.102139 0.513144  0.0147737 0.0205925 -0.081526  0.015866