# vtk DataFile Version 5.1
vtk output
ASCII

DATASET UNSTRUCTURED_GRID
POINTS 4913 float
0.166667 0 0
0.179494 -0.0338314 -0.0409551
0.219229 -0.0603623 -0.0661506
0.262656 -0.0794874 -0.0841089
0.308386 -0.0953031 -0.0986503
0.356872 -0.109033 -0.110276
0.40903 -0.117702 -0.118116
0.462518 -0.120289 -0.122241
0.51435 -0.120218 -0.124048
0.564486 -0.12047 -0.124452
0.614473 -0.120157 -0.123108
0.665451 -0.116424 -0.118069
0.717156 -0.107384 -0.1064
0.767287 -0.0943356 -0.0891591
0.813527 -0.0772097 -0.0679675
0.851805 -0.0523909 -0.0406493
0.833333 0 0
0.166667 0.0625 0
0.199726 0.0286966 -0.0497742
0.240591 0.00530172 -0.0750019
0.282536 -0.0120492 -0.0921211
0.326037 -0.0273782 -0.105837
0.371681 -0.0410657 -0.116712
0.419848 -0.0490959 -0.123501
0.468744 -0.050571 -0.126536
0.516634 -0.0495088 -0.127618
0.563771 -0.0493784 -0.127843
0.611229 -0.0496083 -0.126804
0.659349 -0.0471411 -0.122377
0.706816 -0.0393617 -0.111622
0.751424 -0.0273921 -0.0957505
0.791179 -0.0116455 -0.0760556
0.820845 0.0165341 -0.0533137
0.833333 0.0625 0
0.166667 0.125 0
0.204278 0.09868 -0.0521388
0.248194 0.0770357 -0.0792703
0.291286 0.0603936 -0.0971039
0.334857 0.0452067 -0.110935
0.37962 0.031693 -0.121567
0.425806 0.0241964 -0.12792
0.472126 0.023211 -0.130382
0.517584 0.024392 -0.130717
0.562689 0.0243063 -0.13028
0.608292 0.0235942 -0.128771
0.654312 0.0256722 -0.124119
0.699327 0.03345 -0.113669
0.741493 0.0458134 -0.0984209
0.779239 0.0645745 -0.0806954
0.811724 0.089784 -0.054878
0.833333 0.125 0
0.166667 0.1875 0
0.205787 0.166986 -0.0528153
0.251727 0.148641 -0.0813225
0.296014 0.133721 -0.0999161
0.339973 0.119686 -0.114004
0.384331 0.107198 -0.124525
0.429315 0.100527 -0.130685
0.474063 0.0997281 -0.132838
0.518081 0.100548 -0.132728
0.56197 0.100043 -0.131976
0.606326 0.0991904 -0.130335
0.65088 0.101454 -0.125715
0.694384 0.109485 -0.11563
0.735434 0.122674 -0.101295
0.773885 0.139849 -0.0829614
0.809051 0.160037 -0.0544503
0.833333 0.1875 0
0.166667 0.25 0
0.206678 0.233875 -0.0529193
0.253732 0.219273 -0.0820602
0.29886 0.206825 -0.10108
0.343152 0.194766 -0.115236
0.387321 0.184111 -0.125833
0.431623 0.178609 -0.13213
0.475542 0.177828 -0.134299
0.518855 0.178069 -0.134109
0.562091 0.177212 -0.133388
0.605671 0.176561 -0.131959
0.649341 0.179258 -0.127672
0.69209 0.187446 -0.118083
0.733135 0.199272 -0.103598
0.772457 0.213089 -0.0841612
0.808624 0.228948 -0.0542365
0.833333 0.25 0
0.166667 0.3125 0
0.207315 0.299993 -0.0526627
0.255014 0.288988 -0.082005
0.300668 0.279346 -0.101234
0.345208 0.269875 -0.115616
0.389319 0.261697 -0.126666
0.433327 0.257535 -0.133376
0.476922 0.256648 -0.13572
0.519907 0.256284 -0.135477
0.562762 0.255282 -0.134845
0.605941 0.255093 -0.133862
0.64927 0.25816 -0.130087
0.691939 0.265465 -0.120616
0.733212 0.274957 -0.105647
0.772797 0.285352 -0.0852841
0.808966 0.297198 -0.0543254
0.833333 0.3125 0
0.166667 0.375 0
0.207635 0.365748 -0.052254
0.255594 0.358255 -0.0816966
0.301425 0.351651 -0.101206
0.346023 0.345239 -0.116213
0.390066 0.339832 -0.128033
0.43397 0.336966 -0.135296
0.477432 0.335928 -0.137775
0.520214 0.335004 -0.137319
0.56282 0.333927 -0.136635
0.605824 0.334153 -0.13603
0.649162 0.337009 -0.132489
0.691988 0.342726 -0.122773
0.733439 0.34974 -0.107326
0.773063 0.356877 -0.0862181
0.809075 0.364863 -0.0544251
0.833333 0.375 0
0.166667 0.4375 0
0.207631 0.431586 -0.052008
0.255445 0.427725 -0.0815936
0.30106 0.424426 -0.101575
0.345441 0.421308 -0.117414
0.389318 0.418659 -0.130093
0.43314 0.416997 -0.137862
0.476522 0.41576 -0.140321
0.519239 0.414244 -0.139582
0.561777 0.412958 -0.138749
0.604785 0.41319 -0.138226
0.648281 0.415384 -0.134612
0.691348 0.419255 -0.124482
0.733031 0.423691 -0.108549
0.772891 0.42773 -0.0869613
0.808996 0.432027 -0.0545553
0.833333 0.4375 0
0.166667 0.5 0
0.207527 0.49786 -0.0519915
0.254923 0.497823 -0.0816746
0.30009 0.497951 -0.102096
0.344112 0.498051 -0.118597
0.387798 0.497981 -0.131966
0.431586 0.497381 -0.140045
0.475035 0.495858 -0.142436
0.517911 0.493701 -0.141574
0.560619 0.492088 -0.140761
0.60378 0.492129 -0.140343
0.647451 0.493443 -0.13653
0.690754 0.495327 -0.125915
0.732743 0.497142 -0.109607
0.77294 0.498149 -0.0877077
0.809137 0.498922 -0.0548003
0.833333 0.5 0
0.166667 0.5625 0
0.207611 0.564712 -0.0520255
0.254593 0.56855 -0.0815253
0.29936 0.571902 -0.101963
0.343084 0.574917 -0.11869
0.386671 0.57708 -0.132354
0.430526 0.577292 -0.140442
0.474134 0.575494 -0.142811
0.517227 0.572893 -0.142151
0.560171 0.571089 -0.141745
0.603524 0.571008 -0.141804
0.647365 0.571507 -0.138138
0.69085 0.571329 -0.127182
0.733019 0.570473 -0.110576
0.773337 0.568533 -0.0884473
0.80939 0.565797 -0.0550407
0.833333 0.5625 0
0.166667 0.625 0
0.207956 0.631911 -0.051778
0.254694 0.639485 -0.0807113
0.299227 0.645725 -0.100667
0.342781 0.651236 -0.117134
0.386328 0.655185 -0.13058
0.430235 0.656037 -0.138394
0.473896 0.654194 -0.140798
0.516989 0.651655 -0.140621
0.559958 0.650089 -0.140969
0.603398 0.649936 -0.141772
0.64738 0.649611 -0.138608
0.69103 0.64747 -0.127705
0.733249 0.643936 -0.110952
0.773553 0.639102 -0.0887672
0.809501 0.632801 -0.0550944
0.833333 0.625 0
0.166667 0.6875 0
0.208467 0.699141 -0.0510712
0.255106 0.710283 -0.0792246
0.299536 0.719159 -0.0984739
0.342974 0.726813 -0.114388
0.386423 0.732234 -0.12729
0.430238 0.73375 -0.134712
0.473754 0.73215 -0.137172
0.516564 0.730071 -0.13751
0.559222 0.729076 -0.138577
0.602484 0.728906 -0.140049
0.646439 0.727752 -0.137432
0.69019 0.723827 -0.126866
0.732548 0.717683 -0.110266
0.773055 0.709939 -0.0883523
0.809225 0.700025 -0.0548127
0.833333 0.6875 0
0.166667 0.75 0
0.209084 0.766378 -0.0500367
0.255709 0.780974 -0.0774137
0.3001 0.792394 -0.0960228
0.343399 0.802045 -0.111409
0.386622 0.808927 -0.123816
0.430193 0.81129 -0.130932
0.473456 0.810106 -0.133448
0.515897 0.808518 -0.134175
0.558095 0.808031 -0.135688
0.60098 0.807751 -0.137508
0.644744 0.8058 -0.135328
0.688536 0.800303 -0.125234
0.731163 0.791648 -0.108976
0.772034 0.781037 -0.0874864
0.808617 0.767465 -0.054255
0.833333 0.75 0
0.166667 0.8125 0
0.209675 0.833702 -0.0486944
0.256231 0.851734 -0.0753538
0.300494 0.865764 -0.0934487
0.343492 0.877443 -0.108403
0.386346 0.885932 -0.120531
0.429649 0.889434 -0.127655
0.472772 0.888826 -0.130401
0.515038 0.887501 -0.131385
0.556939 0.887159 -0.13306
0.599571 0.886445 -0.134958
0.643304 0.883481 -0.133151
0.687288 0.876471 -0.123659
0.730249 0.865489 -0.10782
0.771433 0.852123 -0.0866693
0.80828 0.834971 -0.0536716
0.833333 0.8125 0
0.166667 0.875 0
0.209999 0.901251 -0.0469914
0.25609 0.9228 -0.0728908
0.299667 0.939558 -0.0901283
0.342027 0.953158 -0.104415
0.384516 0.963162 -0.11642
0.427766 0.968038 -0.124039
0.471144 0.968276 -0.127557
0.513753 0.966975 -0.128925
0.555875 0.966252 -0.130636
0.598695 0.964745 -0.132553
0.642737 0.960456 -0.131014
0.687189 0.9519 -0.122217
0.730646 0.93885 -0.107003
0.77215 0.922921 -0.0862061
0.80885 0.902452 -0.0532655
0.833333 0.875 0
0.166667 0.9375 0
0.209345 0.969572 -0.0451441
0.253521 0.994656 -0.0693703
0.295716 1.01381 -0.0850776
0.337594 1.0287 -0.0986382
0.380227 1.03968 -0.110714
0.424037 1.04584 -0.119301
0.468322 1.04718 -0.124166
0.512059 1.04587 -0.126257
0.555244 1.04435 -0.128087
0.598989 1.04184 -0.1302
0.643912 1.03616 -0.129047
0.689286 1.02612 -0.12113
0.733615 1.0114 -0.107027
0.775553 0.993359 -0.0869375
0.811449 0.969948 -0.0537945
0.833333 0.9375 0
0.166667 1 0
0.203121 1.03965 -0.0441203
0.244462 1.06672 -0.0646477
0.286059 1.0872 -0.0786552
0.328789 1.10262 -0.0916704
0.372961 1.11401 -0.103978
0.418555 1.12107 -0.113567
0.464827 1.1234 -0.11984
0.510727 1.12226 -0.122965
0.555973 1.12005 -0.125192
0.601557 1.11657 -0.127659
0.648172 1.10974 -0.127159
0.695198 1.09853 -0.120506
0.741119 1.08274 -0.108397
0.784113 1.06336 -0.0903362
0.818983 1.03727 -0.057867
0.833333 1 0
0.166667 0 0.0625
0.200419 -0.0410821 0.0236691
0.239652 -0.065505 0.0007448
0.281022 -0.083801 -0.0164947
0.324352 -0.0994467 -0.031145
0.369943 -0.113298 -0.0429425
0.417908 -0.121718 -0.049935
0.466319 -0.123623 -0.0524986
0.513647 -0.123079 -0.053163
0.560424 -0.123439 -0.0535317
0.607709 -0.123934 -0.0530993
0.655724 -0.121302 -0.049476
0.702481 -0.113139 -0.0388378
0.745997 -0.100677 -0.0226989
0.784957 -0.0833684 -0.00361143
0.80622 -0.0544096 0.0249444
0.833333 0 0.0625
0.166667 0.0625 0.0625
0.212144 0.0287174 0.0197367
0.25358 0.00462099 -0.00440449
0.295174 -0.0134196 -0.0218898
0.337667 -0.0292353 -0.0363867
0.381396 -0.0430418 -0.0476377
0.426252 -0.0507952 -0.0536308
0.471085 -0.0519504 -0.0553125
0.5154 -0.0510192 -0.055556
0.55983 -0.0514674 -0.055971
0.604885 -0.052511 -0.0557559
0.64991 -0.0504889 -0.0520717
0.692624 -0.0425928 -0.0413326
0.731412 -0.0300021 -0.0249738
0.763605 -0.0103905 -0.00466125
0.789419 0.0172906 0.0262839
0.833333 0.0625 0.0625
0.166667 0.125 0.0625
0.215676 0.0990022 0.0165764
0.259559 0.0768329 -0.00861648
0.302173 0.0596767 -0.0264603
0.344698 0.0443425 -0.0409179
0.387569 0.0310778 -0.0518066
0.430644 0.0239908 -0.0572398
0.473275 0.0230679 -0.0582342
0.515571 0.0237681 -0.057799
0.558209 0.0230021 -0.0577433
0.601359 0.0218227 -0.0572126
0.644131 0.0239794 -0.0533048
0.684489 0.0322939 -0.0427063
0.721086 0.0464907 -0.0269405
0.754551 0.0656764 -0.00660933
0.784998 0.0892662 0.0259028
0.833333 0.125 0.0625
0.166667 0.1875 0.0625
0.216865 0.167415 0.0152147
0.262417 0.148466 -0.0108428
0.305957 0.133187 -0.0290077
0.348689 0.119197 -0.0434049
0.391103 0.107221 -0.0541385
0.433112 0.101029 -0.0593957
0.474465 0.100095 -0.0600957
0.515597 0.100329 -0.0593454
0.557068 0.099341 -0.0590622
0.598848 0.0984551 -0.0584121
0.640089 0.101149 -0.0544828
0.679126 0.110069 -0.0441678
0.715869 0.123533 -0.0284718
0.751191 0.139898 -0.00770201
0.783712 0.159236 0.0256479
0.833333 0.1875 0.0625
0.166667 0.25 0.0625
0.217493 0.234467 0.0149229
0.264031 0.219048 -0.0114926
0.308206 0.206261 -0.0297069
0.351158 0.194403 -0.0441327
0.393361 0.184463 -0.0550672
0.434836 0.179362 -0.060537
[...]
POINT_DATA 4913
SCALARS scalars float 1
LOOKUP_TABLE default
0.166667 0.12849 0.129995 0.137989 0.149075 0.1613 0.170186 0.173316 0.173339 0.17322 0.172349 0.167275 0.154696 0.137451 0.119833 0.108355 0.166667 0.166667 0.149837 0.149192 0.151907 0.158307 0.166883 0.172387 0.172548 0.170614 0.169889 0.169815 0.166702 0.157163 0.144841 0.135307 0.136248 0.166667 0.166667 0.153337 0.154146 0.156124 0.160855 0.167302 0.170605 0.168995 0.165886 0.164658 0.164755 0.162397 0.154498 0.144911 0.139043 0.141673 0.166667 0.166667 0.154082 0.155509 0.157005 0.160283 0.164665 0.166111 0.163361 0.159701 0.158324 0.158539 0.156682 0.150166 0.142837 0.139203 0.142191 0.166667 0.166667 0.154427 0.155724 0.156468 0.158137 0.160541 0.160503 0.157137 0.153345 0.151956 0.15225 0.150867 0.145637 0.140017 0.137698 0.1414 0.166667 0.166667 0.1546 0.155503 0.155417 0.15572 0.156609 0.155603 0.151965 0.148022 0.146483 0.146894 0.146072 0.141886 0.137322 0.135852 0.140379 0.166667 0.166667 0.154532 0.15495 0.154165 0.153661 0.153771 0.152411 0.148671 0.144447 0.142675 0.143319 0.143061 0.139571 0.135675 0.134734 0.139849 0.166667 0.166667 0.154282 0.154172 0.15292 0.152175 0.15225 0.151018 0.147259 0.142808 0.140905 0.141796 0.141942 0.138812 0.135236 0.134477 0.139712 0.166667 0.166667 0.154079 0.153478 0.152001 0.151414 0.15195 0.151068 0.147357 0.142842 0.140996 0.142157 0.142434 0.139235 0.135584 0.134582 0.139575 0.166667 0.166667 0.154171 0.153223 0.151649 0.151348 0.152419 0.151743 0.148006 0.143567 0.142024 0.143673 0.144132 0.140542 0.136411 0.134888 0.139472 0.166667 0.166667 0.154552 0.153443 0.151811 0.151713 0.153013 0.152207 0.148327 0.144129 0.143206 0.14556 0.146381 0.142447 0.137658 0.135536 0.139571 0.166667 0.166667 0.155081 0.154023 0.152485 0.152559 0.153846 0.152767 0.148742 0.144899 0.144717 0.147767 0.148976 0.144886 0.139506 0.136757 0.140056 0.166667 0.166667 0.155753 0.155039 0.153936 0.154415 0.155875 0.154745 0.150712 0.147242 0.147642 0.151065 0.152497 0.148296 0.142218 0.138633 0.140923 0.166667 0.166667 0.156465 0.15633 0.156004 0.157193 0.15929 0.158749 0.155159 0.15203 0.152675 0.155975 0.157229 0.152698 0.145596 0.14074 0.141716 0.166667 0.166667 0.157014 0.157424 0.157709 0.159625 0.162826 0.163786 0.161564 0.158966 0.159489 0.162223 0.1627 0.157467 0.149086 0.142499 0.141922 0.166667 0.166667 0.156939 0.156834 0.157393 0.160373 0.165183 0.168451 0.168511 0.166823 0.166958 0.168866 0.168187 0.161903 0.152113 0.143416 0.140839 0.166667 0.166667 0.15262 0.151336 0.153312 0.158563 0.165725 0.17162 0.17417 0.173735 0.17357 0.174454 0.172508 0.165028 0.15392 0.142952 0.137053 0.166667 0.166667 0.149055 0.145773 0.148355 0.155522 0.165089 0.171167 0.171283 0.169448 0.169425 0.170358 0.168114 0.159147 0.147707 0.139387 0.146987 0.166667 0.166667 0.159258 0.156074 0.156458 0.160871 0.16738 0.170144 0.16765 0.164502 0.164411 0.166182 0.165246 0.158486 0.150942 0.149106 0.159008 0.166667 0.166667 0.162011 0.159636 0.159157 0.161767 0.1659 0.166243 0.162009 0.157994 0.157735 0.159798 0.159677 0.154772 0.150066 0.151007 0.160852 0.166667 0.166667 0.16269 0.160581 0.159234 0.160065 0.16195 0.160352 0.155035 0.150627 0.150263 0.152423 0.152935 0.149655 0.147327 0.150077 0.160647 0.166667 0.166667 0.162873 0.160508 0.158067 0.157145 0.157021 0.153975 0.148072 0.143457 0.142952 0.145185 0.146286 0.1445 0.143993 0.148289 0.160053 0.166667 0.166667 0.162934 0.160107 0.156676 0.15436 0.152761 0.148777 0.142436 0.137459 0.136757 0.139215 0.14096 0.140256 0.141017 0.146529 0.159468 0.166667 0.166667 0.16286 0.159548 0.155454 0.152346 0.150035 0.145589 0.138873 0.133427 0.132527 0.135328 0.137645 0.13763 0.139203 0.145513 0.159147 0.166667 0.166667 0.16263 0.158857 0.154426 0.151153 0.148818 0.144291 0.137403 0.131629 0.130609 0.133752 0.136445 0.136745 0.138699 0.145265 0.159079 0.166667 0.166667 0.162374 0.158212 0.153648 0.150625 0.148651 0.144262 0.137438 0.131666 0.130681 0.134139 0.137079 0.137277 0.139101 0.145431 0.159122 0.166667 0.166667 0.162256 0.157809 0.153161 0.150453 0.148809 0.144484 0.137772 0.132405 0.131893 0.135764 0.138884 0.138703 0.139959 0.145789 0.159177 0.166667 0.166667 0.162289 0.157678 0.152951 0.150392 0.148825 0.144369 0.137599 0.132794 0.133236 0.137824 0.141209 0.140648 0.141178 0.146349 0.159259 0.166667 0.166667 0.162435 0.157884 0.153205 0.150751 0.149281 0.144785 0.137851 0.133377 0.134727 0.140067 0.143878 0.143219 0.143036 0.147367 0.159511 0.166667 0.166667 0.16274 0.158613 0.154328 0.152249 0.151312 0.147351 0.140576 0.13616 0.137887 0.143506 0.147486 0.146756 0.14575 0.148948 0.159955 0.166667 0.166667 0.163126 0.159722 0.156166 0.154809 0.154922 0.152324 0.146503 0.142131 0.14358 0.148875 0.152417 0.151198 0.149053 0.150723 0.160395 0.166667 0.166667 0.163348 0.160406 0.157576 0.157169 0.158638 0.158136 0.15432 0.150428 0.151127 0.155557 0.15815 0.155997 0.152441 0.152259 0.160602 0.166667 0.166667 0.162355 0.159123 0.157312 0.158293 0.161386 0.163246 0.161929 0.159097 0.159134 0.162431 0.163909 0.16062 0.155503 0.153152 0.159947 0.166667 0.166667 0.156719 0.15393 0.154342 0.157667 0.162876 0.167039 0.167993 0.166501 0.166281 0.168341 0.168555 0.16391 0.156697 0.15069 0.154423 0.166667 0.166667 0.152564 0.149147 0.150379 0.155837 0.163234 0.166636 0.1648 0.16257 0.163481 0.16614 0.165601 0.159078 0.151825 0.151022 0.153268 0.166667 0.166667 0.160988 0.157442 0.156575 0.159147 0.163204 0.163369 0.15937 0.156283 0.157355 0.160694 0.161266 0.157118 0.153841 0.157348 0.161221 0.166667 0.166667 0.163208 0.160028 0.158003 0.158521 0.15993 0.157588 0.152044 0.148339 0.149326 0.152903 0.154296 0.151977 0.151575 0.157177 0.162375 0.166667 0.166667 0.163526 0.1602 0.157017 0.155619 0.154667 0.150363 0.143804 0.139647 0.140414 0.144077 0.146197 0.145915 0.148013 0.155518 0.162046 0.166667 0.166667 0.163411 0.15949 0.155076 0.151893 0.148938 0.143175 0.135881 0.131264 0.131772 0.135546 0.138552 0.1401 0.144338 0.15369 0.161516 0.166667 0.166667 0.163282 0.158734 0.153284 0.148708 0.144286 0.137402 0.129392 0.124275 0.124615 0.128681 0.132445 0.135326 0.141224 0.152145 0.161051 0.166667 0.166667 0.163139 0.158095 0.151968 0.14662 0.14137 0.133713 0.125058 0.119459 0.119762 0.124197 0.128483 0.132222 0.139245 0.151175 0.160726 0.166667 0.166667 0.162907 0.15746 0.151012 0.145459 0.139931 0.131917 0.122896 0.116992 0.117335 0.122177 0.126854 0.130996 0.138509 0.150794 0.160562 0.166667 0.166667 0.162645 0.156878 0.150339 0.144916 0.139449 0.131393 0.122373 0.116553 0.117093 0.122276 0.127197 0.131298 0.138653 0.150806 0.160532 0.166667 0.166667 0.162486 0.156489 0.149949 0.14472 0.139371 0.131321 0.122473 0.117148 0.11828 0.123881 0.128859 0.132548 0.139301 0.151007 0.160543 0.166667 0.166667 0.16247 0.156362 0.149823 0.144729 0.139511 0.131415 0.122618 0.117903 0.119962 0.126225 0.131352 0.134586 0.14051 0.151489 0.160616 0.166667 0.166667 0.16259 0.156575 0.150113 0.145255 0.140512 0.132696 0.123909 0.119533 0.122307 0.129181 0.134628 0.137594 0.142596 0.152531 0.160885 0.166667 0.166667 0.162902 0.157339 0.151249 0.146962 0.14329 0.136537 0.128208 0.123891 0.12669 0.133612 0.1391 0.141682 0.145576 0.154093 0.161314 0.166667 0.166667 0.163374 0.158549 0.153166 0.149784 0.147564 0.142644 0.135622 0.131454 0.133667 0.139962 0.144874 0.146615 0.149055 0.15584 0.161715 0.166667 0.166667 0.163642 0.159373 0.154916 0.152626 0.151964 0.149355 0.144421 0.140777 0.142176 0.147436 0.151391 0.151973 0.152693 0.15753 0.161894 0.166667 0.166667 0.162543 0.158542 0.155471 0.154672 0.155714 0.155457 0.152804 0.150136 0.150959 0.155074 0.157995 0.157283 0.156031 0.158499 0.160717 0.166667 0.166667 0.15711 0.154277 0.153686 0.155223 0.158463 0.16063 0.160172 0.158755 0.159415 0.162282 0.163812 0.161386 0.15729 0.156079 0.15583 0.166667 0.166667 0.153524 0.149739 0.149521 0.152899 0.157834 0.159295 0.156861 0.155106 0.157124 0.160941 0.161693 0.157806 0.154656 0.152754 0.15386 0.166667 0.166667 0.161265 0.156939 0.154373 0.154637 0.156128 0.154548 0.150227 0.147754 0.149819 0.154071 0.155889 0.154152 0.15477 0.157111 0.160891 0.166667 0.166667 0.163037 0.158701 0.154746 0.152693 0.15132 0.147278 0.141526 0.138412 0.140278 0.144675 0.14722 0.147757 0.151151 0.156456 0.161843 0.166667 0.166667 0.163038 0.158267 0.153029 0.14888 0.144974 0.13888 0.131903 0.128091 0.129641 0.134145 0.13792 0.140892 0.14686 0.154603 0.161474 0.166667 0.166667 0.162708 0.157222 0.150705 0.144669 0.138605 0.130745 0.122609 0.118093 0.11935 0.124197 0.129292 0.134512 0.142918 0.152806 0.160988 0.166667 0.166667 0.162475 0.156311 0.14872 0.141215 0.133401 0.123983 0.114801 0.10972 0.110881 0.11611 0.122215 0.129256 0.139728 0.151359 0.160594 0.166667 0.166667 0.162314 0.155627 0.147337 0.138908 0.129858 0.119189 0.109129 0.103667 0.104897 0.110522 0.117337 0.125631 0.137528 0.15029 0.160243 0.166667 0.166667 0.162111 0.155062 0.146416 0.137541 0.127816 0.116359 0.105719 0.100114 0.101573 0.107607 0.114919 0.123837 0.136358 0.149642 0.159963 0.166667 0.166667 0.161907 0.154653 0.145913 0.136934 0.126988 0.115241 0.104418 0.0989422 0.100806 0.107207 0.114691 0.123588 0.136031 0.149399 0.159828 0.166667 0.166667 0.161815 0.154506 0.145848 0.13698 0.127096 0.115396 0.104682 0.0995268 0.101967 0.10876 0.116129 0.124508 0.136368 0.149472 0.159801 0.166667 0.166667 0.161844 0.154578 0.14607 0.137508 0.127986 0.116595 0.106176 0.101421 0.104425 0.111641 0.11891 0.126601 0.13754 0.149978 0.159901 0.166667 0.166667 0.161957 0.154833 0.146567 0.138635 0.130043 0.119434 0.109536 0.105131 0.108357 0.115804 0.123081 0.130068 0.139817 0.151106 0.160197 0.166667 0.166667 0.162243 0.155508 0.147718 0.140832 0.133833 0.124716 0.115797 0.111683 0.114636 0.121801 0.128787 0.13485 0.143055 0.15272 0.160608 0.166667 0.166667 0.162743 0.156655 0.14965 0.14402 0.138929 0.131973 0.124694 0.120964 0.123303 0.129682 0.135812 0.14056 0.146864 0.154513 0.160991 0.166667 0.166667 0.163115 0.157756 0.151825 0.147502 0.144357 0.139894 0.134647 0.131532 0.13323 0.138624 0.14362 0.146781 0.150993 0.156296 0.161085 0.166667 0.166667 0.162225 0.157572 0.153251 0.150564 0.149494 0.147593 0.144445 0.142266 0.1436 0.147914 0.151599 0.152946 0.15478 0.157081 0.160005 0.166667 0.166667 0.156924 0.153814 0.152214 0.152105 0.153657 0.154445 0.153359 0.152324 0.153502 0.156475 0.158366 0.157232 0.155831 0.154561 0.155151 0.166667 0.166667 0.153622 0.14907 0.147216 0.148448 0.151513 0.152118 0.149699 0.148432 0.151074 0.155515 0.157403 0.155512 0.152924 0.151967 0.153753 0.166667 0.166667 0.160952 0.155494 0.151105 0.149103 0.148708 0.146385 0.142145 0.140045 0.142525 0.147315 0.150051 0.150851 0.152382 0.155763 0.160424 0.166667 0.166667 0.162398 0.156678 0.150682 0.146102 0.14272 0.137906 0.132107 0.129194 0.131359 0.136221 0.140261 0.143613 0.148453 0.15486 0.161243 0.166667 0.166667 0.162255 0.155986 0.148533 0.141613 0.135444 0.128206 0.12079 0.116998 0.118823 0.12421 0.130042 0.136071 0.143945 0.152892 0.160826 0.166667 0.166667 0.161906 0.154869 0.146019 0.137014 0.128267 0.118656 0.109633 0.104987 0.106638 0.112731 0.120423 0.129202 0.139956 0.151112 0.160356 0.166667 0.166667 0.161639 0.153864 0.143856 0.133118 0.122086 0.110346 0.099942 0.0946603 0.0962734 0.102975 0.112262 0.12351 0.136758 0.149715 0.159999 0.166667 0.166667 0.161427 0.153097 0.142281 0.130263 0.117397 0.103872 0.0923838 0.0867496 0.0885432 0.0958185 0.106295 0.119344 0.134354 0.148565 0.159642 0.166667 0.166667 0.161237 0.152546 0.141247 0.128459 0.114399 0.0995954 0.0873544 0.0816655 0.0838967 0.0917362 0.102898 0.116861 0.132783 0.147685 0.159295 0.166667 0.166667 0.161136 0.152332 0.140876 0.127815 0.113285 0.0979107 0.0853084 0.0797 0.082413 0.0907051 0.101954 0.115935 0.132075 0.14722 0.159073 0.166667 0.166667 0.161179 0.152504 0.141214 0.128338 0.114019 0.0988135 0.0862618 0.0807752 0.0837451 0.0922001 0.103113 0.116446 0.132236 0.147219 0.158999 0.166667 0.166667 0.161276 0.152809 0.141902 0.129656 0.116201 0.101838 0.0897687 0.0845224 0.0874976 0.0958043 0.106283 0.118603 0.133473 0.147787 0.159099 0.166667 0.166667 0.161361 0.153098 0.14272 0.131576 0.119687 0.106823 0.0956829 0.0907722 0.0936467 0.101625 0.111576 0.122628 0.13596 0.148999 0.159394 0.166667 0.166667 0.161561 0.153635 0.144011 0.134374 0.124623 0.113953 0.104344 0.099806 0.102393 0.109809 0.118798 0.128215 0.139425 0.150638 0.159788 0.166667 0.166667 0.162004 0.154736 0.14614 0.138171 0.130815 0.122835 0.115275 0.111217 0.113273 0.119843 0.127402 0.134803 0.143466 0.152459 0.160144 0.166667 0.166667 0.162511 0.156188 0.148905 0.142639 0.137706 0.132477 0.127062 0.12376 0.125341 0.130888 0.136769 0.141905 0.147742 0.154085 0.160198 0.166667 0.166667 0.161809 0.156497 0.151087 0.146951 0.144644 0.14207 0.138601 0.136289 0.13763 0.141949 0.145971 0.148649 0.151281 0.154629 0.159027 0.166667 0.166667 0.156505 0.152975 0.150567 0.149468 0.150209 0.150395 0.148847 0.147573 0.148698 0.151448 0.153126 0.152829 0.151882 0.151806 0.153905 0.166667 0.166667 0.153642 0.148459 0.145341 0.145176 0.147253 0.147361 0.14472 0.143286 0.145801 0.150533 0.153034 0.151714 0.15052 0.15084 0.15339 0.166667 0.166667 0.160719 0.154368 0.148597 0.145135 0.143752 0.140944 0.136356 0.133889 0.136167 0.141155 0.145181 0.147067 0.1499 0.154457 0.159909 0.166667 0.166667 0.16197 0.15514 0.147524 0.141301 0.136799 0.131295 0.12491 0.121493 0.123422 0.12898 0.134768 0.139599 0.145751 0.153333 0.160622 0.166667 0.166667 0.161782 0.154243 0.144951 0.136135 0.128434 0.120017 0.111713 0.107288 0.10912 0.115707 0.123665 0.131661 0.141006 0.151208 0.160159 0.166667 0.166667 0.161372 0.152942 0.142094 0.130862 0.119982 0.108603 0.0983379 0.0929544 0.0947986 0.102584 0.113061 0.124485 0.136932 0.149405 0.159707 0.166667 0.166667 0.161013 0.151763 0.139579 0.126174 0.112378 0.098291 0.0862391 0.0800259 0.0819743 0.0909315 0.103837 0.118527 0.13373 0.148059 0.159386 0.166667 0.166667 0.160737 0.150859 0.137643 0.122466 0.106198 0.0898104 0.0762711 0.0695335 0.0718724 0.081898 0.0967155 0.113903 0.131154 0.146878 0.159037 0.166667 0.166667 0.160543 0.15026 0.136392 0.120068 0.102051 0.0839489 0.0693404 0.062411 0.0653944 0.0763206 0.0921772 0.110754 0.129206 0.145836 0.15865 0.166667 0.166667 0.160529 0.150165 0.136113 0.119428 0.10072 0.081808 0.0666475 0.0596642 0.06305 0.0743789 0.0903542 0.109247 0.12815 0.145185 0.158352 0.166667 0.166667 0.160693 0.150561 0.136782 0.120524 0.102333 0.0837077 0.0685975 0.0616623 0.0648679 0.0758262 0.0912552 0.109591 0.128229 0.145113 0.15823 0.166667 0.166667 0.160858 0.151064 0.137858 0.122675 0.106098 0.0888299 0.0743711 0.0676563 0.0704749 0.080612 0.0950651 0.112099 0.129649 0.145733 0.158326 0.166667 0.166667 0.160929 0.15145 0.139023 0.125395 0.111202 0.0962389 0.08314 0.0768247 0.0794178 0.0887335 0.101776 0.116813 0.132426 0.147023 0.158633 0.166667 0.166667 0.161067 0.152056 0.140696 0.128966 0.11756 0.105627 0.0946471 0.0888499 0.0911043 0.0995461 0.110718 0.123145 0.136149 0.148725 0.159041 0.166667 0.166667 0.161518 0.153352 0.1434 0.133784 0.125268 0.116546 0.108026 0.102949 0.104678 0.112024 0.121009 0.130385 0.140357 0.150515 0.159386 0.166667 0.166667 0.162114 0.155061 0.146803 0.139495 0.133888 0.128128 0.121869 0.117785 0.119128 0.125122 0.131797 0.137919 0.144557 0.151992 0.159365 0.166667 0.166667 0.161481 0.155619 0.149645 0.145072 0.142411 0.139341 0.135008 0.131969 0.13311 0.137575 0.141925 0.14475 0.14791 0.152394 0.15809 0.166667 0.166667 0.156115 0.152189 0.149534 0.148334 0.148791 0.148423 0.145987 0.14393 0.144749 0.147353 0.149124 0.148666 0.148224 0.149194 0.152633 0.166667 0.166667 0.153674 0.148195 0.14469 0.144157 0.145677 0.145063 0.141732 0.139714 0.14192 0.146696 0.149373 0.1491 0.149043 0.150166 0.153169 0.166667 0.166667 0.160674 0.153819 0.147515 0.143595 0.14164 0.138013 0.132546 0.129415 0.131417 0.137074 0.14186 0.144701 0.148514 0.153757 0.159615 0.166667 0.166667 0.161784 0.154228 0.14585 0.138992 0.133732 0.127189 0.119747 0.115538 0.11751 0.124259 0.131195 0.137007 0.144125 0.152422 0.160225 0.166667 0.166667 0.161493 0.153044 0.142759 0.132986 0.124132 0.11438 0.104794 0.0995443 0.101665 0.109846 0.119497 0.128697 0.139115 0.150156 0.159724 0.166667 0.166667 0.161002 0.151557 0.139486 0.126847 0.114299 0.101182 0.0892837 0.0829079 0.0853228 0.0953005 0.108188 0.121206 0.134882 0.148296 0.15927 0.166667 0.166667 0.160612 0.150262 0.136578 0.121287 0.105285 0.0889351 0.0746472 0.0670438 0.0699013 0.0819129 0.0981895 0.114968 0.131598 0.14693 0.158942 0.166667 0.166667 0.160304 0.149206 0.134178 0.116652 0.0977053 0.0785147 0.0620061 0.0532888 0.0568874 0.07097 0.0901136 0.109917 0.128876 0.145718 0.158594 0.166667 0.166667 0.160082 0.148485 0.13259 0.11356 0.0925005 0.0711533 0.0528408 0.043273 0.0478552 0.0636327 0.0845399 0.106176 0.126663 0.144593 0.158196 0.166667 0.166667 0.160069 0.148363 0.132249 0.112778 0.090922 0.0685589 0.0492461 0.0392616 0.0443082 0.0605855 0.0820026 0.104257 0.125393 0.14385 0.157879 0.166667 0.166667 0.160245 0.148787 0.133055 0.11427 0.0932232 0.0713687 0.0522698 0.0424869 0.0469841 0.0622458 0.0829741 0.104701 0.12551 0.143795 0.157789 0.166667 0.166667 0.160422 0.14935 0.134377 0.117133 0.0982674 0.0783561 0.0605945 0.0514617 0.055173 0.0687352 0.087718 0.107772 0.127204 0.144534 0.157956 0.166667 0.166667 0.160513 0.149884 0.135933 0.120709 0.104808 0.0879135 0.0724378 0.0642261 0.0673713 0.0793191 0.0957946 0.113167 0.130273 0.145924 0.158309 0.166667 0.166667 0.160714 0.150769 0.138187 0.125273 0.112662 0.099332 0.0867205 0.0795817 0.0821346 0.0925435 0.106097 0.120088 0.134219 0.147679 0.158726 0.166667 0.166667 0.16124 0.152352 0.141521 0.131163 0.121911 0.112111 0.102328 0.0963741 0.09831 0.107019 0.117487 0.127749 0.138526 0.149444 0.159016 0.166667 0.166667 0.161839 0.154221 0.145507 0.137935 0.131937 0.125291 0.117913 0.113166 0.114667 0.121557 0.128999 0.135511 0.142744 0.150898 0.158952 0.166667 0.166667 0.161185 0.154964 0.148922 0.144351 0.141366 0.137468 0.132061 0.128376 0.12961 0.134731 0.139354 0.142396 0.146125 0.151277 0.157634 0.166667 0.166667 0.155791 0.151656 0.14912 0.147954 0.148035 0.146781 0.143219 0.140465 0.141244 0.144497 0.146362 0.146082 0.146141 0.147719 0.15191 0.166667 0.166667 0.153527 0.148126 0.144977 0.144554 0.145507 0.143935 0.139868 0.137612 0.13989 0.144648 0.147821 0.148257 0.148829 0.150239 0.153214 0.166667 0.166667 0.160591 0.1536 0.147392 0.143447 0.140853 0.136139 0.129843 0.126442 0.128947 0.135212 0.140625 0.144092 0.148416 0.153811 0.159567 0.166667 0.166667 0.161615 0.153714 0.145176 0.138099 0.132065 0.124328 0.11591 0.111513 0.114272 0.122043 0.129866 0.136295 0.143848 0.152299 0.160091 0.166667 0.166667 0.161247 0.152291 0.141571 0.131253 0.121442 0.110393 0.0997071 0.094326 0.0975433 0.107122 0.117867 0.127802 0.138677 0.149926 0.159556 0.166667 0.166667 0.160742 0.150682 0.137881 0.124302 0.110542 0.0959367 0.0826368 0.0760448 0.0799711 0.091932 0.106211 0.120112 0.13433 0.148002 0.159082 0.166667 0.166667 0.160332 0.149228 0.13452 0.117933 0.100418 0.0822501 0.0659792 0.0577408 0.0626724 0.0776347 0.0958204 0.113736 0.130985 0.1466 0.15875 0.166667 0.166667 0.159955 0.147917 0.131596 0.112514 0.0917882 0.0703704 0.0509588 0.0405246 0.0470471 0.0654753 0.0871631 0.108454 0.128203 0.145385 0.158431 0.166667 0.166667 0.159672 0.147001 0.129621 0.108885 0.0858924 0.0619056 0.0394074 0.0259619 0.0349351 0.0566767 0.080791 0.104324 0.125861 0.144245 0.158059 0.166667 0.166667 0.159628 0.146812 0.129172 0.107971 0.084173 0.0589929 0.0346522 0.0185576 0.0293692 0.0526566 0.0777133 0.102146 0.124502 0.143509 0.157767 0.166667 0.166667 0.159773 0.147224 0.130084 0.109695 0.0868359 0.0623909 0.0388814 0.0244836 0.0332174 0.0547345 0.0789442 0.102771 0.124759 0.143588 0.157736 0.166667 0.166667 0.159929 0.147831 0.131677 0.113047 0.0925409 0.0705161 0.0497017 0.0381822 0.0445311 0.0627857 0.0845749 0.10633 0.126736 0.144515 0.157977 0.166667 0.166667 0.160065 0.148543 0.133666 0.117289 0.0999263 0.0814 0.064