# vtk DataFile Version 5.1
vtk output
ASCII

DATASET UNSTRUCTURED_GRID
POINTS 435 float
0 0 0
0.4 0 0
0.8 0 0
1.2 0 0
1.6 0 0
2 0 0
2.4 0 0
2.8 0 0
3.2 0 0
3.6 0 0
4 0 0
0 0.25 0
0.4 0.25 0
0.8 0.25 0
1.2 0.25 0
1.6 0.25 0
2 0.25 0
2.4 0.25 0
2.8 0.25 0
3.2 0.25 0
3.6 0.25 0
4 0.25 0
0 0.5 0
0.4 0.5 0
0.8 0.5 0
1.2 0.5 0
1.6 0.5 0
2 0.5 0
2.4 0.5 0
2.8 0.5 0
3.2 0.5 0
3.6 0.5 0
4 0.5 0
0 0.75 0
0.4 0.75 0
0.8 0.75 0
1.2 0.75 0
1.6 0.75 0
2 0.75 0
2.4 0.75 0
2.8 0.75 0
3.2 0.75 0
3.6 0.75 0
4 0.75 0
0 1 0
0.4 1 0
0.8 1 0
1.2 1 0
1.6 1 0
2 1 0
2.4 1 0
2.8 1 0
3.2 1 0
3.6 1 0
4 1 0
0 0 0.25
0.4 0 0.25
0.8 0 0.25
1.2 0 0.25
1.6 0 0.25
2 0 0.25
2.4 0 0.25
2.8 0 0.25
3.2 0 0.25
3.6 0 0.25
4 0 0.25
0 0.25 0.25
0.4 0.25 0.25
0.8 0.25 0.25
1.2 0.25 0.25
1.6 0.25 0.25
2 0.25 0.25
2.4 0.25 0.25
2.8 0.25 0.25
3.2 0.25 0.25
3.6 0.25 0.25
4 0.25 0.25
0 0.5 0.25
0.4 0.5 0.25
0.8 0.5 0.25
1.2 0.5 0.25
1.6 0.5 0.25
2 0.5 0.25
2.4 0.5 0.25
2.8 0.5 0.25
3.2 0.5 0.25
3.6 0.5 0.25
4 0.5 0.25
0 0.75 0.25
0.4 0.75 0.25
0.8 0.75 0.25
1.2 0.75 0.25
1.6 0.75 0.25
2 0.75 0.25
2.4 0.75 0.25
2.8 0.75 0.25
3.2 0.75 0.25
3.6 0.75 0.25
4 0.75 0.25
0 1 0.25
0.4 1 0.25
0.8 1 0.25
1.2 1 0.25
1.6 1 0.25
2 1 0.25
2.4 1 0.25
2.8 1 0.25
3.2 1 0.25
3.6 1 0.25
4 1 0.25
0 0 0.5
0.4 0 0.5
0.8 0 0.5
1.2 0 0.5
1.6 0 0.5
2 0 0.5
2.4 0 0.5
2.8 0 0.5
3.2 0 0.5
3.6 0 0.5
4 0 0.5
0 0.25 0.5
0.4 0.25 0.5
0.8 0.25 0.5
1.2 0.25 0.5
1.6 0.25 0.5
2 0.25 0.5
2.4 0.25 0.5
2.8 0.25 0.5
3.2 0.25 0.5
3.6 0.25 0.5
4 0.25 0.5
0 0.5 0.5
0.4 0.5 0.5
0.8 0.5 0.5
1.2 0.5 0.5
1.6 0.5 0.5
2 0.5 0.5
2.4 0.5 0.5
2.8 0.5 0.5
3.2 0.5 0.5
3.6 0.5 0.5
4 0.5 0.5
0 0.75 0.5
0.4 0.75 0.5
0.8 0.75 0.5
1.2 0.75 0.5
1.6 0.75 0.5
2 0.75 0.5
2.4 0.75 0.5
2.8 0.75 0.5
3.2 0.75 0.5
3.6 0.75 0.5
4 0.75 0.5
0 1 0.5
0.4 1 0.5
0.8 1 0.5
1.2 1 0.5
1.6 1 0.5
2 1 0.5
2.4 1 0.5
2.8 1 0.5
3.2 1 0.5
3.6 1 0.5
4 1 0.5
0 0 0.75
0.4 0 0.75
0.8 0 0.75
1.2 0 0.75
1.6 0 0.75
2 0 0.75
2.4 0 0.75
2.8 0 0.75
3.2 0 0.75
3.6 0 0.75
4 0 0.75
0 0.25 0.75
0.4 0.25 0.75
0.8 0.25 0.75
1.2 0.25 0.75
1.6 0.25 0.75
2 0.25 0.75
2.4 0.25 0.75
2.8 0.25 0.75
3.2 0.25 0.75
3.6 0.25 0.75
4 0.25 0.75
0 0.5 0.75
0.4 0.5 0.75
0.8 0.5 0.75
1.2 0.5 0.75
1.6 0.5 0.75
2 0.5 0.75
2.4 0.5 0.75
2.8 0.5 0.75
3.2 0.5 0.75
3.6 0.5 0.75
4 0.5 0.75
0 0.75 0.75
0.4 0.75 0.75
0.8 0.75 0.75
1.2 0.75 0.75
1.6 0.75 0.75
2 0.75 0.75
2.4 0.75 0.75
2.8 0.75 0.75
3.2 0.75 0.75
3.6 0.75 0.75
4 0.75 0.75
0 1 0.75
0.4 1 0.75
0.8 1 0.75
1.2 1 0.75
1.6 1 0.75
2 1 0.75
2.4 1 0.75
2.8 1 0.75
3.2 1 0.75
3.6 1 0.75
4 1 0.75
0 0 1
0.4 0 1
0.8 0 1
1.2 0 1
1.6 0 1
2 0 1
2.4 0 1
2.8 0 1
3.2 0 1
3.6 0 1
4 0 1
0 0.25 1
0.4 0.25 1
0.8 0.25 1
1.2 0.25 1
1.6 0.25 1
2 0.25 1
2.4 0.25 1
2.8 0.25 1
3.2 0.25 1
3.6 0.25 1
4 0.25 1
0 0.5 1
0.4 0.5 1
0.8 0.5 1
1.2 0.5 1
1.6 0.5 1
2 0.5 1
2.4 0.5 1
2.8 0.5 1
3.2 0.5 1
3.6 0.5 1
4 0.5 1
0 0.75 1
0.4 0.75 1
0.8 0.75 1
1.2 0.75 1
1.6 0.75 1
2 0.75 1
2.4 0.75 1
2.8 0.75 1
3.2 0.75 1
3.6 0.75 1
4 0.75 1
0 1 1
0.4 1 1
0.8 1 1
1.2 1 1
1.6 1 1
2 1 1
2.4 1 1
2.8 1 1
3.2 1 1
3.6 1 1
4 1 1
0.2 0.125 0.125
0.6 0.125 0.125
1 0.125 0.125
1.4 0.125 0.125
1.8 0.125 0.125
2.2 0.125 0.125
2.6 0.125 0.125
3 0.125 0.125
3.4 0.125 0.125
3.8 0.125 0.125
0.2 0.375 0.125
0.6 0.375 0.125
1 0.375 0.125
1.4 0.375 0.125
1.8 0.375 0.125
2.2 0.375 0.125
2.6 0.375 0.125
3 0.375 0.125
3.4 0.375 0.125
3.8 0.375 0.125
0.2 0.625 0.125
0.6 0.625 0.125
1 0.625 0.125
1.4 0.625 0.125
1.8 0.625 0.125
2.2 0.625 0.125
2.6 0.625 0.125
3 0.625 0.125
3.4 0.625 0.125
3.8 0.625 0.125
0.2 0.875 0.125
0.6 0.875 0.125
1 0.875 0.125
1.4 0.875 0.125
1.8 0.875 0.125
2.2 0.875 0.125
2.6 0.875 0.125
3 0.875 0.125
3.4 0.875 0.125
3.8 0.875 0.125
0.2 0.125 0.375
0.6 0.125 0.375
1 0.125 0.375
1.4 0.125 0.375
1.8 0.125 0.375
2.2 0.125 0.375
2.6 0.125 0.375
3 0.125 0.375
3.4 0.125 0.375
3.8 0.125 0.375
0.2 0.375 0.375
0.6 0.375 0.375
1 0.375 0.375
1.4 0.375 0.375
1.8 0.375 0.375
2.2 0.375 0.375
2.6 0.375 0.375
3 0.375 0.375
3.4 0.375 0.375
3.8 0.375 0.375
0.2 0.625 0.375
0.6 0.625 0.375
1 0.625 0.375
1.4 0.625 0.375
1.8 0.625 0.375
2.2 0.625 0.375
2.6 0.625 0.375
3 0.625 0.375
3.4 0.625 0.375
3.8 0.625 0.375
0.2 0.875 0.375
0.6 0.875 0.375
1 0.875 0.375
1.4 0.875 0.375
1.8 0.875 0.375
2.2 0.875 0.375
2.6 0.875 0.375
3 0.875 0.375
3.4 0.875 0.375
3.8 0.875 0.375
0.2 0.125 0.625
0.6 0.125 0.625
1 0.125 0.625
1.4 0.125 0.625
1.8 0.125 0.625
2.2 0.125 0.625
2.6 0.125 0.625
3 0.125 0.625
3.4 0.125 0.625
3.8 0.125 0.625
0.2 0.375 0.625
0.6 0.375 0.625
1 0.375 0.625
1.4 0.375 0.625
1.8 0.375 0.625
2.2 0.375 0.625
2.6 0.375 0.625
3 0.375 0.625
3.4 0.375 0.625
3.8 0.375 0.625
0.2 0.625 0.625
0.6 0.625 0.625
1 0.625 0.625
1.4 0.625 0.625
1.8 0.625 0.625
2.2 0.625 0.625
2.6 0.625 0.625
3 0.625 0.625
3.4 0.625 0.625
3.8 0.625 0.625
0.2 0.875 0.625
0.6 0.875 0.625
1 0.875 0.625
1.4 0.875 0.625
1.8 0.875 0.625
2.2 0.875 0.625
2.6 0.875 0.625
3 0.875 0.625
3.4 0.875 0.625
3.8 0.875 0.625
0.2 0.125 0.875
0.6 0.125 0.875
1 0.125 0.875
1.4 0.125 0.875
1.8 0.125 0.875
2.2 0.125 0.875
2.6 0.125 0.875
3 0.125 0.875
3.4 0.125 0.875
3.8 0.125 0.875
0.2 0.375 0.875
0.6 0.375 0.875
1 0.375 0.875
1.4 0.375 0.875
1.8 0.375 0.875
2.2 0.375 0.875
2.6 0.375 0.875
3 0.375 0.875
3.4 0.375 0.875
3.8 0.375 0.875
0.2 0.625 0.875
0.6 0.625 0.875
1 0.625 0.875
1.4 0.625 0.875
1.8 0.625 0.875
2.2 0.625 0.875
2.6 0.625 0.875
3 0.625 0.875
3.4 0.625 0.875
3.8 0.625 0.875
0.2 0.875 0.875
0.6 0.875 0.875
1 0.875 0.875
1.4 0.875 0.875
1.8 0.875 0.875
2.2 0.875 0.875
2.6 0.875 0.875
3 0.875 0.875
3.4 0.875 0.875
3.8 0.875 0.875

CELLS 961 4800
OFFSETS vtktypeint64
[...]
POINT_DATA 435
SCALARS weights float 1
LOOKUP_TABLE default
2.5 5 5 5 5 5 5 5 5 5 2.5 5 10 10 10 10 10 10 10 10 10 5 5 10 10 10 10 10 10 10 10 10 5 5 10 10 10 10 10 10 10 10 10 5 2.5 5 5 5 5 5 5 5 5 5 2.5 5 10 10 10 10 10 10 10 10 10 5 10 20 20 20 20 20 20 20 20 20 9.99999 10 20 20 20 20 20 20 20 20 20 9.99999 10 20 20 20 20 20 20 20 20 20 9.99999 5 10 10 10 10 10 10 10 10 10 5 5 10 10 10 10 10 10 10 10 10 5 10 20 20 20 20 20 20 20 20 20 9.99999 10 20 20 20 20 20 20 20 20 20 9.99999 10 20 20 20 20 20 20 20 20 20 10 5 10 10 10 10 10 10 10 10 10 5 5 10 10 10 10 10 10 10 10 10 5 10 20 20 20 20 20 20 20 20 20 10 10 20 20 20 20 20 20 20 20 20 10 10 20 20 20 20 20 20 20 20 20 10 5 10 10 10 10 10 10 10 10 10 5 2.5 5 5 5 5 5 5 5 5 5 2.5 5 10 10 10 10 10 10 10 10 10 5 5 10 10 10 10 10 10 10 10 10 5 5 10 10 10 10 10 10 10 10 10 5 2.5 5 5 5 5 5 5 5 5 5 2.5 5 5 5 5 5 5 5 5 5 5 5 5 5 5 5 5 5 5 5 5 5 5 5 5 5 5 5 5 5 5 5 5 5 5 5 5 5 5 5 5 5 5 5 5 5 5 5 5 5 5 5 5 5 5 5 5 5 5 5 5 5 5 5 5 5 5 5 5 5 5 5 5 5 5 5 5 5 5 5 5 5 5 5 5 5 5 5 5 5 5 5 5 5 5 5 5 5 5 5 5 5 5 5 5 5 5 5 5 5 5 5 5 5 5 5 5 5 5 5 5 5 5 5 5 5 5 5 5 5 5 5 5 5 5 5 5 5 5 5 5 5 5 5 5 5 5 5 5 5 5 5 5 5 5 5 5 5 5 5 5 
VECTORS u float
0 0 0  -0.12757 -0.0679796 -0.0287987  -0.2426 -0.207727 -0.0243388  -0.36692 -0.405685 -0.0173935  -0.500214 -0.643377 -0.0114449  -0.641383 -0.909473 -0.00703479  -0.788601 -1.19552 -0.0041123  -0.940171 -1.49596 -0.00189443  -1.09216 -1.80424 -6.07238e-05  -1.24354 -2.11567 0.000650644  -1.39184 -2.42682 0.000422211  0 0 0  -0.0496452 -0.0668706 -0.0179329  -0.120076 -0.231162 -0.0136432  -0.214704 -0.449746 -0.00897356  -0.329665 -0.704696 -0.00546015  -0.459263 -0.983685 -0.00295482  -0.59981 -1.27914 -0.00158859  -0.747427 -1.58505 -7.5341e-05  -0.897944 -1.89601 8.27323e-05  -1.04858 -2.20842 0.000589762  -1.19791 -2.51918 0.000661302  0 0 0  0.00612399 -0.0764041 1.2016e-05  -0.0156386 -0.255677 0.000277148  -0.0762088 -0.492156 0.00143369  -0.16846 -0.763192 0.00187295  -0.284069 -1.0551 0.00199618  -0.415603 -1.36019 0.0015421  -0.557848 -1.67195 0.00153999  -0.705609 -1.98622 0.0010353  -0.855006 -2.29978 0.000512266  -1.00358 -2.61153 0.000532367  0 0 0  0.0579091 -0.0956403 0.0197231  0.0839722 -0.288042 0.0154113  0.0576783 -0.539051 0.0126271  -0.0110183 -0.824554 0.00971133  -0.111269 -1.12837 0.00730024  -0.233636 -1.44201 0.00493163  -0.369601 -1.75938 0.00303006  -0.514261 -2.07639 0.00144495  -0.661679 -2.39166 0.00075483  -0.809796 -2.70354 0.000370511  0 0 0  0.121853 -0.128827 0.0348358  0.18947 -0.328482 0.0276658  0.195442 -0.594506 0.0219781  0.148955 -0.893225 0.0164779  0.0633388 -1.20739 0.011777  -0.049752 -1.52837 0.00779523  -0.180422 -1.84962 0.00415998  -0.321564 -2.16897 0.00221693  -0.468273 -2.48433 0.000748932  -0.6159 -2.79605 0.000430637  0 0 0  -0.126337 -0.0763172 -0.0130817  -0.248704 -0.214605 -0.0132095  -0.372932 -0.410027 -0.00908493  -0.504809 -0.645982 -0.00595711  -0.644228 -0.910967 -0.00359561  -0.790918 -1.19625 -0.00200106  -0.941537 -1.49643 -0.000642821  -1.09245 -1.80401 0.000194311  -1.24338 -2.11575 0.00054124  -1.39168 -2.42678 0.000695378  0 0 0  -0.0495779 -0.0759613 -0.0077679  -0.125977 -0.238708 -0.00711547  -0.220661 -0.454592 -0.00443137  -0.334184 -0.707654 -0.00263795  -0.462304 -0.985339 -0.00139979  -0.602002 -1.27999 -0.000498682  -0.749157 -1.58541 5.15282e-05  -0.898813 -1.8958 0.000130206  -1.04821 -2.20843 0.00033623  -1.19765 -2.51917 0.00058791  0 0 0  0.00297058 -0.0861506 -0.000264063  -0.0206161 -0.26456 -9.52929e-05  -0.0811324 -0.498364 0.000592202  -0.172525 -0.76725 0.00085187  -0.286573 -1.05768 0.000971317  -0.417204 -1.36197 0.000816911  -0.558996 -1.67249 0.000803053  -0.705957 -1.98656 0.000433624  -0.855506 -2.30009 0.000427276  -1.00306 -2.6114 0.000475675  0 0 0  0.0525803 -0.104811 0.00831658  0.0799171 -0.297263 0.00743163  0.0541193 -0.545858 0.00593692  -0.0141814 -0.82923 0.00474948  -0.113215 -1.13159 0.00347561  -0.23452 -1.44428 0.00233567  -0.370116 -1.76019 0.00153914  -0.514098 -2.07727 0.000757307  -0.662386 -2.39186 0.000447005  -0.809692 -2.70371 0.000327259  0 0 0  0.116408 -0.137762 0.0153677  0.185772 -0.337493 0.0141098  0.192135 -0.601004 0.0108346  0.146222 -0.898015 0.00819775  0.0616086 -1.21062 0.0058724  -0.05071 -1.53053 0.00387567  -0.180353 -1.85114 0.00200421  -0.321607 -2.16968 0.00103244  -0.468005 -2.48475 0.000264049  -0.615879 -2.79635 0.000182033  0 0 0  -0.127971 -0.0788155 9.17315e-05  -0.250048 -0.217877 0.000109971  -0.374613 -0.412037 0.000184238  -0.506211 -0.647223 8.10027e-05  -0.64555 -0.911661 0.000228465  -0.791673 -1.19695 0.000500023  -0.941357 -1.49645 0.000604272  -1.09246 -1.80394 0.000629246  -1.24284 -2.11597 0.00035888  -1.39135 -2.42653 0.000541508  0 0 0  -0.0503282 -0.0782878 3.42131e-05  -0.127133 -0.24157 9.47118e-05  -0.222421 -0.456586 2.55704e-05  -0.335464 -0.708872 0.000176549  -0.463265 -0.986151 -1.24872e-05  -0.602681 -1.28056 0.000341833  -0.749405 -1.58557 0.000440061  -0.898386 -1.89565 0.000226617  -1.04837 -2.2082 0.000215828  -1.19753 -2.51903 0.000509679  0 0 0  0.00206095 -0.0881403 -3.66271e-05  -0.0219062 -0.267128 -7.13468e-05  -0.082375 -0.50032 -1.80304e-05  -0.173532 -0.768339 -0.000126272  -0.287468 -1.05849 6.13928e-06  -0.417857 -1.3621 1.61529e-05  -0.559417 -1.67289 5.36442e-05  -0.70583 -1.98642 -4.84884e-05  -0.85576 -2.30037 0.000244677  -1.00274 -2.61135 0.000427246  0 0 0  0.0516593 -0.106918 -4.14252e-05  0.0781639 -0.299981 -0.000379115  0.0529444 -0.547953 -0.000161916  -0.0148448 -0.830727 -9.20296e-05  -0.11382 -1.13272 -0.000167012  -0.234885 -1.44477 -0.000100583  -0.370099 -1.76077 -0.000138342  -0.51399 -2.07742 6.1214e-05  -0.662352 -2.39207 0.000124812  -0.80958 -2.70356 0.000180304  0 0 0  0.115538 -0.140611 -0.000182539  0.183991 -0.340384 -0.000285238  0.190979 -0.603006 -0.000342697  0.145217 -0.899166 -0.000235617  0.0611343 -1.2115 -8.07941e-05  -0.0510712 -1.53084 -0.000349909  -0.180461 -1.85148 -0.000194579  -0.321459 -2.16965 -0.000296772  -0.467914 -2.48491 -0.000195056  -0.61591 -2.79588 5.36442e-07  0 0 0  -0.126327 -0.0761594 0.0132172  -0.248709 -0.214622 0.0133193  -0.372911 -0.409935 0.00954038  -0.504468 -0.645895 0.0063777  -0.64408 -0.910567 0.00416988  -0.790762 -1.19608 0.00299531  -0.940993 -1.49621 0.00183064  -1.09244 -1.80384 0.00114894  -1.24269 -2.11527 0.000509143  -1.39187 -2.42648 0.0006091  0 0 0  -0.0495117 -0.0758249 0.0080514  -0.125857 -0.238674 0.00729442  -0.220623 -0.454558 0.00466383  -0.333941 -0.707511 0.00262898  -0.462067 -0.985057 0.00156152  -0.601715 -1.27987 0.00111562  -0.748817 -1.58503 0.000690401  -0.897982 -1.89566 0.000429809  -1.04839 -2.20793 0.000212789  -1.19723 -2.51918 0.000333905  0 0 0  0.00273973 -0.0860312 0.000187993  -0.0205202 -0.264463 -0.000154018  -0.0809951 -0.498274 -0.000703275  -0.172391 -0.766961 -0.00109392  -0.286325 -1.05752 -0.000969172  -0.417213 -1.36133 -0.000845134  -0.55864 -1.67214 -0.000663161  -0.705979 -1.98609 -0.00012362  -0.855166 -2.3 -9.11951e-06  -1.00312 -2.61117 0.000321984  0 0 0  0.0527184 -0.104853 -0.00846928  0.0799612 -0.297267 -0.00803965  0.0541258 -0.545615 -0.00628948  -0.0140849 -0.828919 -0.00505978  -0.113168 -1.13136 -0.00363785  -0.234267 -1.44375 -0.00268281  -0.370177 -1.76024 -0.00178224  -0.513659 -2.07698 -0.00086391  -0.6623 -2.39193 -0.000152588  -0.80939 -2.70326 0.000195146  0 0 0  0.116337 -0.137744 -0.015643  0.18569 -0.337446 -0.0147815  0.19227 -0.600688 -0.0114462  0.146368 -0.897622 -0.00845933  0.0613701 -1.21054 -0.00611132  -0.0504494 -1.53001 -0.00423789  -0.180293 -1.85087 -0.00270933  -0.321306 -2.16943 -0.00162309  -0.467875 -2.48439 -0.00068754  -0.615573 -2.79575 -0.000136852  0 0 0  -0.127526 -0.0678396 0.0289159  -0.242594 -0.207515 0.024583  -0.366776 -0.405248 0.0178103  -0.499876 -0.643043 0.0117797  -0.640786 -0.908776 0.00760639  -0.788354 -1.19506 0.0051502  -0.939263 -1.49523 0.00311792  -1.09141 -1.80354 0.00187933  -1.24231 -2.11481 0.000729442  -1.39158 -2.42619 0.000833273  0 0 0  -0.0496536 -0.0667407 0.0182345  -0.119999 -0.230849 0.0136942  -0.214452 -0.449469 0.00909638  -0.32925 -0.704312 0.0054934  -0.458813 -0.98302 0.00346363  -0.5996 -1.27853 0.00205326  -0.746875 -1.58412 0.000849724  -0.897862 -1.89536 0.000509262  -1.04759 -2.20787 0.000327826  -1.19737 -2.51895 0.000313878  0 0 0  0.00628433 -0.0762621 3.32594e-05  -0.0153158 -0.255418 -0.000664175  -0.0759128 -0.491861 -0.00150543  -0.168224 -0.76274 -0.00217766  -0.283741 -1.05454 -0.0018931  -0.415323 -1.35941 -0.00174767  -0.557684 -1.67115 -0.00135624  -0.705088 -1.98555 -0.000552416  -0.854636 -2.29944 -0.000160277  -1.00291 -2.61113 0.000127554  0 0 0  0.0580211 -0.0956991 -0.0199497  0.0841791 -0.287733 -0.0160083  0.0579487 -0.538606 -0.0129451  -0.0110433 -0.824246 -0.0100785  -0.111014 -1.12797 -0.00725538  -0.233347 -1.44144 -0.00518072  -0.369092 -1.75856 -0.00317663  -0.513638 -2.07614 -0.00181806  -0.661428 -2.39081 -0.000513077  -0.809236 -2.70292 4.43459e-05  0 0 0  0.121935 -0.128837 -0.0351117  0.189553 -0.328167 -0.0284791  0.195412 -0.593983 -0.022549  0.148871 -0.892773 -0.0165848  0.0634084 -1.20707 -0.0120672  -0.0494609 -1.5277 -0.0081622  -0.179606 -1.84958 -0.00531298  -0.320837 -2.16841 -0.00286478  -0.467419 -2.4836 -0.00117898  -0.615289 -2.79546 -0.000329494  -0.0401389 -0.0309981 -0.00835714  -0.13523 -0.143918 -0.0162797  -0.237833 -0.324466 -0.0123792  -0.354665 -0.551341 -0.00818482  -0.483914 -0.810528 -0.0050479  -0.623149 -1.09196 -0.00291792  -0.769758 -1.38893 -0.0013406  -0.919901 -1.69525 -0.000315949  -1.07054 -2.00607 0.000349969  -1.2205 -2.31762 0.000585631  -0.00997113 -0.0348201 -0.00330617  -0.0446478 -0.159463 -0.00619613  -0.107816 -0.359016 -0.00410606  -0.198508 -0.6037 -0.00214879  -0.311359 -0.877404 -0.000864349  -0.440252 -1.16999 -0.000155337  -0.580664 -1.47433 0.000305608  -0.727503 -1.78484 0.000542  -0.876919 -2.09773 0.000417426  -1.02604 -2.40976 0.000504732  0.0139835 -0.0421098 0.00329219  0.032896 -0.181801 0.00637238  0.011976 -0.396556 0.00545096  -0.050133 -0.656782 0.00471535  -0.144226 -0.944167 0.00388855  -0.261361 -1.24744 0.00293785  -0.394195 -1.55898 0.00204234  -0.536787 -1.87381 0.00139461  -0.684124 -2.18876 0.000684202  -0.832562 -2.50175 0.000481427  0.0404964 -0.0536624 0.00952029  0.113254 -0.213836 0.0180252  0.131449 -0.440462 0.0145223  0.0975848 -0.715182 0.0113152  0.0223482 -1.01513 0.00846559  -0.082778 -1.32781 0.00593035  -0.208117 -1.64576 0.00367676  -0.346239 -1.96418 0.00199027  -0.491343 -2.28075 0.0009377  -0.638943 -2.59414 0.000484839  -0.0404118 -0.033804 -0.00262818  -0.136827 -0.149533 -0.00499439  -0.241768 -0.328738 -0.00421554  -0.358126 -0.554065 -0.0027152  -0.486469 -0.812142 -0.00163886  -0.624996 -1.09294 -0.000764579  -0.770982 -1.38939 -0.000167876  -0.920362 -1.69528 0.000198126  -1.07055 -2.00598 0.000331819  -1.22021 -2.31746 0.00042358  -0.0106421 -0.037685 -0.00101626  -0.0465724 -0.164931 -0.00185162  -0.111223 -0.363583 -0.00137264  -0.201632 -0.60674 -0.000664651  -0.313639 -0.879263 -0.000248313  -0.441825 -1.17111 4.36008e-05  -0.581774 -1.47493 0.000269562  -0.728086 -1.78494 0.000218928  -0.87715 -2.09768 0.000179887  -1.0259 -2.40988 0.000397235  0.0129529 -0.0449421 0.000954062  0.0300741 -0.187317 0.0018239  0.00917375 -0.401591 0.00163114  -0.0526228 -0.660279 0.00145146  -0.146074 -0.946547 0.00119412  -0.26254 -1.24898 0.000880539  -0.394888 -1.55984 0.00071463  -0.537055 -1.87421 0.000423074  -0.684285 -2.18914 0.000319153  -0.83265 -2.5018 0.000344008  0.0393974 -0.0565227 0.00286278  0.109928 -0.219541 0.00544581  0.128911 -0.445769 0.0046494  0.095419 -0.718884 0.00361151  0.0208181 -1.01774 0.00273991  -0.0837917 -1.32953 0.00185752  -0.208495 -1.64681 0.00115836  -0.34622 -1.96487 0.00060755  -0.491269 -2.28112 0.00030148  -0.638977 -2.59427 0.000128895  -0.0403959 -0.0337502 0.00269818  -0.136796 -0.149472 0.00518769  -0.241738 -0.328718 0.00443983  -0.358083 -0.554048 0.00297904  -0.48636 -0.812065 0.00186676  -0.624906 -1.09281 0.00133556  -0.770835 -1.38928 0.00109649  -0.920098 -1.69521 0.000803471  -1.07051 -2.00578 0.000405669  -1.22009 -2.31735 0.000429511  -0.0106687 -0.0376753 0.00102431  -0.0465733 -0.164891 0.00189269  -0.111165 -0.36358 0.00139487  -0.201607 -0.606641 0.000666797  -0.313475 -0.879172 0.000251174  -0.441762 -1.17098 0.000116348  -0.581632 -1.47473 0.000155509  -0.727931 -1.7848 0.000144124  -0.877002 -2.09745 0.00015676  -1.02592 -2.40976 0.000291288  0.0129316 -0.0449104 -0.00100929  0.0300847 -0.187301 -0.0020991  0.00920916 -0.401529 -0.0019716  -0.0525746 -0.660168 -0.00169945  -0.146 -0.94645 -0.00137752  -0.262452 -1.24876 -0.00103992  -0.394863 -1.55963 -0.000817299  -0.536948 -1.87412 -0.000466824  -0.684273 -2.18902 -7.81417e-05  -0.832496 -2.50178 0.000138998  0.0394026 -0.0565253 -0.00293273  0.109946 -0.21955 -0.00589567  0.128902 -0.445694 -0.0052349  0.0954911 -0.718704 -0.00398761  0.0207938 -1.01759 -0.00301152  -0.0836794 -1.32937 -0.00219166  -0.208443 -1.64663 -0.0015263  -0.346138 -1.96477 -0.00091815  -0.491073 -2.28107 -0.000459909  -0.638909 -2.59406 -4.06504e-05  -0.0401457 -0.0309306 0.00844061  -0.135185 -0.143797 0.0164519  -0.237788 -0.324285 0.0126179  -0.354461 -0.551144 0.00844193  -0.483516 -0.810139 0.00538749  -0.622847 -1.09152 0.0035159  -0.769407 -1.38848 0.00222903  -0.919399 -1.6948 0.00126362  -1.0701 -2.00556 0.000698984  -1.21992 -2.31715 0.000438213  -0.00997569 -0.0347554 0.00340319  -0.0445756 -0.159282 0.00622523  -0.107624 -0.358835 0.00408584  -0.198334 -0.60345 0.00208724  -0.311068 -0.877044 0.000875175  -0.440046 -1.16952 0.000363886  -0.580395 -1.47371 -2.37226e-05  -0.727185 -1.7843 -4.11272e-05  -0.876526 -2.09727 0.000158012  -1.02573 -2.40956 0.000163317  0.0139986 -0.0420901 -0.00333411  0.0329891 -0.181725 -0.00667953  0.0121711 -0.396343 -0.00577813  -0.0500207 -0.656453 -0.00500852  -0.144052 -0.943851 -0.00407237  -0.261145 -1.24691 -0.00306165  -0.393948 -1.5584 -0.00214833  -0.53648 -1.87334 -0.00127202  -0.683885 -2.1885 -0.000523269  -0.832191 -2.50142 5.126e-05  0.0405309 -0.0536872 -0.00959468  0.113295 -0.213771 -0.0184909  0.13154 -0.440209 -0.0151178  0.0976561 -0.714782 -0.0116979  0.0223045 -1.01478 -0.00864571  -0.0826104 -1.32745 -0.00616086  -0.207888 -1.6453 -0.00414443  -0.34581 -1.96395 -0.00252354  -0.490848 -2.28036 -0.00119793  -0.638544 -2.5936 -0.000341594  
