# vtk DataFile Version 5.1
vtk output
ASCII

DATASET UNSTRUCTURED_GRID
POINTS 637 float
-0.999999 0 0
-0.775453 0.114054 0.114619
-0.466614 0.142143 0.149582
-0.133706 0.155516 0.157545
0.223205 0.16611 0.160024
0.606191 0.169645 0.169678
1.00794 0.172264 0.17771
1.41071 0.167806 0.167162
1.79515 0.159455 0.157242
2.15272 0.148513 0.143656
2.4808 0.135189 0.129843
2.77835 0.0970982 0.0923285
3 0 0
-0.999999 0.166667 0
-0.784555 0.238216 0.0884453
-0.492024 0.260113 0.138931
-0.156772 0.269623 0.158855
0.207459 0.27617 0.167309
0.595856 0.277984 0.17484
1.00252 0.279516 0.177844
1.41056 0.276185 0.170977
1.80178 0.272424 0.162121
2.16836 0.26553 0.150051
2.50211 0.254801 0.12539
2.78765 0.22552 0.0700537
3 0.166667 0
-0.999999 0.333333 0
-0.789798 0.363611 0.0800591
-0.509314 0.376832 0.127585
-0.179457 0.382633 0.156408
0.187251 0.385923 0.171276
0.582785 0.386287 0.18228
1.00173 0.386939 0.189303
1.42298 0.385051 0.179387
1.82119 0.383409 0.164338
2.18938 0.380653 0.147226
2.5173 0.374893 0.113966
2.79241 0.358215 0.0638188
3 0.333333 0
-0.999999 0.5 0
-0.790362 0.492622 0.0817187
-0.512274 0.493549 0.123842
-0.186324 0.494944 0.153728
0.179169 0.495095 0.171447
0.577509 0.493843 0.185802
1.00471 0.494064 0.195404
1.43148 0.49356 0.181744
1.83186 0.494004 0.163666
2.19702 0.495763 0.145018
2.51974 0.495868 0.110916
2.79255 0.494461 0.0675253
3 0.5 0
-0.999999 0.666667 0
-0.790353 0.622812 0.0834967
-0.509796 0.61029 0.126071
-0.181337 0.607033 0.155296
0.184863 0.604374 0.171317
0.58096 0.601411 0.182234
1.00298 0.600151 0.189864
1.42733 0.60192 0.177308
1.82593 0.605272 0.163365
2.19179 0.611053 0.146873
2.51689 0.617101 0.11468
2.79219 0.63161 0.070362
3 0.666667 0
-0.999999 0.833333 0
-0.787233 0.751342 0.0935092
-0.495828 0.727069 0.136444
-0.162246 0.719748 0.158578
0.202314 0.714094 0.168352
0.59277 0.709026 0.176507
1.00453 0.706067 0.180544
1.41788 0.710394 0.172234
1.80896 0.716999 0.162677
2.17283 0.726295 0.151002
2.50406 0.737531 0.126358
2.7894 0.767828 0.080292
3 0.833333 0
-0.999999 1 0
-0.778157 0.880105 0.12646
-0.47113 0.844916 0.148778
-0.139042 0.833598 0.156785
0.21801 0.824079 0.161751
0.601967 0.816651 0.172312
1.00844 0.81172 0.178445
1.41519 0.817817 0.167554
1.79709 0.829881 0.157853
2.14932 0.842927 0.145142
2.47836 0.857181 0.134437
2.77945 0.9008 0.109557
3 1 0
-0.999999 0 0.166667
-0.787412 0.0840915 0.23855
-0.495942 0.133778 0.265693
-0.159623 0.158718 0.271382
0.206662 0.172542 0.27163
0.595402 0.177478 0.27798
1.00477 0.180613 0.282825
1.41686 0.178313 0.274471
1.80876 0.168401 0.271122
2.172 0.152937 0.262105
2.50345 0.128428 0.251021
2.78951 0.0740947 0.222648
3 0 0.166667
-0.999999 0.166667 0.166667
-0.799529 0.215773 0.219033
-0.52469 0.253099 0.256566
-0.188773 0.270732 0.271309
0.186411 0.280429 0.276886
0.587019 0.283937 0.281508
1.00415 0.285342 0.282469
1.42219 0.284384 0.27755
1.8229 0.27842 0.272647
2.19694 0.267253 0.264773
2.52984 0.248775 0.246749
2.80073 0.208719 0.206907
3 0.166667 0.166667
-0.999999 0.333333 0.166667
-0.804313 0.352028 0.213557
-0.539886 0.373193 0.248364
-0.211216 0.382537 0.26927
0.165488 0.387674 0.279339
0.574245 0.389739 0.286075
1.00467 0.390823 0.291499
1.43472 0.390578 0.28405
1.84164 0.387248 0.273043
2.2166 0.380919 0.262274
2.54243 0.371149 0.239599
2.80468 0.348186 0.203972
3 0.333333 0.166667
-0.999999 0.5 0.166667
-0.804795 0.491574 0.21425
-0.542106 0.494115 0.245985
-0.217425 0.494526 0.267716
0.157459 0.49462 0.279432
0.568844 0.494838 0.288302
1.00544 0.496421 0.296269
1.44122 0.496592 0.286181
1.84974 0.495835 0.272695
2.22184 0.495111 0.26132
2.54402 0.494319 0.238299
2.805 0.49081 0.206167
3 0.5 0.166667
-0.999999 0.666667 0.166667
-0.804637 0.632184 0.215673
-0.540796 0.615166 0.247558
-0.21378 0.606376 0.268592
0.162368 0.601506 0.279416
0.572436 0.599828 0.28598
1.00508 0.601462 0.291531
1.43648 0.602508 0.282903
1.84449 0.604589 0.27274
2.21876 0.609279 0.26217
2.54333 0.617732 0.240615
2.8051 0.634804 0.207847
3 0.666667 0.166667
-0.999999 0.833333 0.166667
-0.80155 0.771803 0.222353
-0.527983 0.735425 0.255256
-0.193619 0.718 0.271257
0.182157 0.708595 0.277544
0.585361 0.705066 0.282695
1.00605 0.706236 0.284987
1.42604 0.708372 0.279728
1.82742 0.713492 0.273443
2.20076 0.72294 0.265445
2.53261 0.740591 0.248231
2.80252 0.778695 0.213269
3 0.833333 0.166667
-0.999999 1 0.166667
-0.788434 0.907832 0.247253
-0.496693 0.854271 0.265626
-0.161144 0.829778 0.270898
0.204716 0.816217 0.27304
0.59549 0.810868 0.280088
1.0079 0.810366 0.284461
1.42018 0.814088 0.276635
1.81015 0.823201 0.272219
2.17149 0.836698 0.262934
2.50349 0.861082 0.254906
2.79041 0.919041 0.234324
3 1 0.166667
-0.999999 0 0.333333
-0.793613 0.0761921 0.364261
-0.515461 0.122738 0.380784
-0.186111 0.155 0.383965
0.181976 0.175553 0.382577
0.580252 0.187292 0.385941
1.00353 0.193297 0.388074
1.4282 0.185784 0.382842
1.82673 0.171488 0.383198
2.1927 0.15051 0.378326
2.51916 0.116248 0.372441
2.79467 0.066721 0.357391
3 0 0.333333
-0.999999 0.166667 0.333333
-0.805872 0.211096 0.35436
-0.543005 0.245759 0.375214
-0.215864 0.268016 0.383252
0.160111 0.281889 0.385568
0.570728 0.290172 0.387362
1.00484 0.29439 0.387233
1.43711 0.289482 0.384318
1.84578 0.279855 0.382286
2.22009 0.265131 0.378957
2.54469 0.24081 0.370354
2.80604 0.204781 0.348507
3 0.166667 0.333333
-0.999999 0.333333 0.333333
-0.81013 0.350844 0.351901
-0.555416 0.370039 0.370777
-0.234726 0.381247 0.381959
0.142076 0.388013 0.386855
0.560519 0.392711 0.38948
1.00705 0.395285 0.392989
1.4513 0.392747 0.388674
1.8653 0.388001 0.382253
2.23802 0.380413 0.377748
2.55588 0.367428 0.367026
2.81017 0.34674 0.347382
3 0.333333 0.333333
-0.999999 0.5 0.333333
-0.810313 0.493337 0.351988
-0.557314 0.494691 0.369562
-0.239256 0.494739 0.381418
0.136086 0.494053 0.386811
0.556839 0.494857 0.390795
1.00819 0.496467 0.396341
1.45667 0.496244 0.390052
1.87169 0.49637 0.382078
2.24267 0.496595 0.377919
2.55833 0.494664 0.366736
2.81043 0.491908 0.348503
3 0.5 0.333333
-0.999999 0.666667 0.333333
-0.81031 0.636698 0.352672
-0.555961 0.619335 0.370567
-0.235952 0.608034 0.381945
0.140349 0.600036 0.386935
0.559539 0.596928 0.389353
1.00675 0.597806 0.393002
1.45104 0.599836 0.387561
1.86558 0.604664 0.381895
2.23863 0.612543 0.37834
2.55658 0.622163 0.368099
2.8104 0.638321 0.349178
3 0.666667 0.333333
-0.999999 0.833333 0.333333
-0.807548 0.779339 0.355585
-0.545493 0.743357 0.374909
-0.217883 0.720785 0.383499
0.158628 0.70603 0.385992
0.570233 0.699322 0.38835
1.00535 0.698803 0.389595
1.43819 0.702995 0.386714
1.84708 0.712383 0.383347
2.22195 0.727285 0.380213
2.54727 0.749366 0.371946
2.80756 0.784294 0.351268
3 0.833333 0.333333
-0.999999 1 0.333333
-0.795153 0.917908 0.368674
-0.516007 0.865362 0.381088
-0.185328 0.833124 0.383792
0.182616 0.812313 0.383821
0.581177 0.802261 0.387871
1.00433 0.799639 0.390738
1.42728 0.806301 0.386208
1.82555 0.820123 0.385312
2.19202 0.84111 0.379466
2.52017 0.874115 0.375465
2.79618 0.927771 0.363235
3 1 0.333333
-0.999999 0 0.5
-0.793665 0.0811465 0.494296
-0.517311 0.120326 0.496148
-0.192049 0.151725 0.495368
0.175134 0.174111 0.492533
0.57597 0.186618 0.493792
1.00234 0.19148 0.493627
1.42942 0.181686 0.491291
1.83035 0.168447 0.495459
2.19745 0.147186 0.49432
2.52131 0.113045 0.494215
2.79501 0.0707472 0.495486
3 0 0.5
-0.999999 0.166667 0.5
-0.806455 0.214109 0.493615
-0.544674 0.244531 0.495009
-0.220998 0.266036 0.495072
0.152799 0.280567 0.493663
0.565166 0.288712 0.492778
1.00348 0.292015 0.49169
1.44012 0.28479 0.490721
1.85118 0.276419 0.49198
2.22464 0.262471 0.493938
2.54679 0.239266 0.494918
2.80673 0.207637 0.49332
3 0.166667 0.5
-0.999999 0.333333 0.5
-0.810812 0.352484 0.493662
-0.55833 0.369483 0.494428
-0.240834 0.380374 0.49491
0.13371 0.387001 0.493862
0.553447 0.3907 0.492555
1.00371 0.39187 0.494334
1.45161 0.387396 0.493274
1.86894 0.38423 0.491648
2.24196 0.378315 0.49421
2.55871 0.366799 0.495174
2.81083 0.348918 0.493889
3 0.333333 0.5
-0.999999 0.5 0.5
-0.811309 0.494226 0.493416
-0.561128 0.494839 0.494328
-0.245823 0.494718 0.495187
0.12811 0.493497 0.49377
0.549025 0.492619 0.493302
1.00255 0.491875 0.49663
1.45482 0.490109 0.494292
1.87344 0.492133 0.491719
2.24607 0.494692 0.495088
2.5611 0.494878 0.495874
2.81116 0.49359 0.494194
3 0.5 0.5
-0.999999 0.666667 0.5
-0.810947 0.636763 0.493192
-0.558599 0.620242 0.494548
-0.2415 0.608818 0.495516
0.132842 0.599912 0.494065
0.552676 0.594465 0.492463
1.00282 0.591854 0.494729
1.45124 0.592664 0.492347
1.86901 0.59983 0.49131
2.24223 0.610813 0.495243
2.55882 0.623235 0.496012
2.81093 0.639304 0.49371
3 0.666667 0.5
-0.999999 0.833333 0.5
-0.807887 0.77782 0.492802
-0.547176 0.745165 0.495156
-0.222756 0.722495 0.495694
0.151954 0.706152 0.494113
0.564267 0.696344 0.493723
1.00303 0.691571 0.494155
1.44082 0.694852 0.493428
1.85219 0.706951 0.493253
2.22625 0.725905 0.495672
2.54918 0.751455 0.496074
2.80804 0.784165 0.492908
3 0.833333 0.5
-0.999999 1 0.5
-0.795425 0.91455 0.494583
-0.51933 0.86882 0.496133
-0.192312 0.835825 0.4957
0.175407 0.812491 0.493744
0.576047 0.798519 0.495644
1.00148 0.791634 0.497245
1.42824 0.797259 0.495235
1.82934 0.813866 0.497734
2.19735 0.839912 0.49577
2.52327 0.87793 0.495854
2.79669 0.926249 0.496496
3 1 0.5
-0.999999 0 0.666667
-0.793252 0.0848444 0.625854
-0.513186 0.12382 0.611804
-0.184134 0.153761 0.606509
0.183933 0.173768 0.602332
0.581846 0.184956 0.601736
1.00166 0.18911 0.599192
1.4239 0.183261 0.599319
1.82419 0.170911 0.607168
2.19291 0.147754 0.609912
2.51912 0.114344 0.615995
2.79471 0.0729092 0.634309
3 0 0.666667
-0.999999 0.166667 0.666667
-0.80608 0.216652 0.634377
-0.542217 0.246534 0.615005
-0.214598 0.267031 0.60662
0.16153 0.280484 0.601515
0.571464 0.28823 0.598119
1.00343 0.291499 0.596049
1.43549 0.287194 0.596874
1.84589 0.278398 0.60147
2.22122 0.262411 0.608694
2.54577 0.240016 0.619505
2.80672 0.208999 0.639291
3 0.166667 0.666667
-0.999999 0.333333 0.666667
-0.810562 0.353451 0.63697
-0.556684 0.370152 0.618641
[...]
POINT_DATA 637
SCALARS scalars float 1
LOOKUP_TABLE default
0.999999 0.955896 0.826133 0.67126 0.499858 0.330399 0.247626 0.340085 0.513248 0.684639 0.835437 0.954473 1 0.999999 0.958 0.842169 0.683509 0.500854 0.315208 0.210641 0.317348 0.506858 0.692096 0.849382 0.958692 1 0.999999 0.960287 0.85336 0.698968 0.511801 0.314332 0.196754 0.317097 0.517225 0.706515 0.859244 0.961523 1 0.999999 0.960539 0.854652 0.703348 0.516791 0.316238 0.195551 0.321241 0.524743 0.711958 0.860261 0.961606 1 0.999999 0.961656 0.854365 0.701351 0.515136 0.318056 0.2012 0.321832 0.522595 0.709393 0.859353 0.962077 1 0.999999 0.961973 0.847005 0.690376 0.508118 0.32323 0.220937 0.328459 0.51596 0.697826 0.852277 0.961662 1 0.999999 0.96076 0.832675 0.678709 0.508335 0.341817 0.259545 0.350753 0.518581 0.683634 0.835057 0.957587 1 0.999999 0.960471 0.845813 0.686483 0.502386 0.317018 0.214794 0.325595 0.515077 0.695762 0.850773 0.960675 1 0.999999 0.968859 0.867039 0.704406 0.505703 0.295993 0.165865 0.302396 0.513219 0.710958 0.870758 0.96915 1 0.999999 0.972291 0.877938 0.720262 0.516554 0.290804 0.137514 0.298176 0.522113 0.724512 0.879612 0.972174 1 0.999999 0.972662 0.879045 0.724527 0.521572 0.291164 0.129766 0.29946 0.527196 0.728038 0.880292 0.972516 1 0.999999 0.97315 0.879373 0.723537 0.520841 0.294568 0.140956 0.300706 0.525725 0.727346 0.881141 0.97316 1 0.999999 0.971766 0.871378 0.710879 0.512448 0.302333 0.173753 0.30931 0.519501 0.71625 0.874703 0.971841 1 0.999999 0.962916 0.848513 0.690616 0.508419 0.324353 0.223381 0.333055 0.51938 0.697737 0.85285 0.962875 1 0.999999 0.963794 0.858934 0.705221 0.517851 0.319212 0.20093 0.324605 0.52472 0.710288 0.861273 0.963948 1 0.999999 0.97378 0.880897 0.724724 0.522114 0.295185 0.138715 0.301369 0.527076 0.728223 0.881925 0.973569 1 0.999999 0.97713 0.890295 0.73789 0.530141 0.284791 0.0862923 0.295991 0.536999 0.740857 0.890509 0.977034 1 0.999999 0.977181 0.891399 0.740836 0.533302 0.282449 0.0636353 0.295522 0.540567 0.744017 0.892305 0.977251 1 0.999999 0.977627 0.891331 0.739883 0.533219 0.288037 0.0913656 0.297115 0.538047 0.74198 0.891707 0.977607 1 0.999999 0.975963 0.884398 0.728382 0.526386 0.300346 0.145919 0.305884 0.530158 0.731197 0.885438 0.975623 1 0.999999 0.965963 0.861271 0.707155 0.521613 0.325051 0.208467 0.328989 0.526627 0.711519 0.863769 0.966017 1 0.999999 0.963771 0.859121 0.708501 0.521511 0.317964 0.1916 0.319573 0.524807 0.712832 0.862107 0.964281 1 0.999999 0.974298 0.881467 0.72783 0.526377 0.294722 0.125671 0.298023 0.529405 0.73097 0.883123 0.974283 1 0.999999 0.977687 0.892413 0.742344 0.535687 0.285802 0.0589265 0.290104 0.538082 0.743348 0.892679 0.977637 1 0.999999 0.978015 0.894494 0.745857 0.538632 0.284483 0.00915739 0.288381 0.540228 0.746106 0.894458 0.977869 1 0.999999 0.978095 0.893156 0.743767 0.538015 0.289894 0.0750514 0.294134 0.5399 0.744345 0.893215 0.978003 1 0.999999 0.97616 0.884926 0.731218 0.530225 0.301997 0.141915 0.307218 0.53407 0.734163 0.886315 0.975975 1 0.999999 0.965894 0.862704 0.711525 0.525866 0.326818 0.20839 0.330983 0.529787 0.715504 0.865271 0.966178 1 0.999999 0.964525 0.857284 0.703776 0.517074 0.318859 0.200794 0.322937 0.523156 0.71076 0.861583 0.964683 1 0.999999 0.974565 0.880702 0.724105 0.521883 0.296735 0.143464 0.302761 0.528633 0.729857 0.883422 0.974688 1 0.999999 0.977887 0.892072 0.740683 0.534247 0.290968 0.0926739 0.294145 0.53689 0.741866 0.892119 0.977765 1 0.999999 0.978006 0.893546 0.744314 0.538165 0.290126 0.0698839 0.291069 0.539004 0.744272 0.89336 0.977831 1 0.999999 0.978431 0.892563 0.741173 0.535223 0.293114 0.0997692 0.296876 0.538458 0.742925 0.892935 0.978272 1 0.999999 0.976811 0.883633 0.726596 0.524769 0.301429 0.151958 0.308121 0.532368 0.73291 0.886496 0.976633 1 0.999999 0.966642 0.859801 0.705848 0.520265 0.324596 0.210023 0.329699 0.526885 0.712841 0.864248 0.966762 1 0.999999 0.96457 0.849646 0.691455 0.509046 0.323373 0.22132 0.329877 0.515885 0.700117 0.856309 0.964833 1 0.999999 0.974093 0.87377 0.71095 0.511895 0.30362 0.178737 0.312188 0.522343 0.720224 0.878918 0.974259 1 0.999999 0.9775 0.886325 0.729604 0.526316 0.301333 0.148114 0.306023 0.533194 0.735625 0.888617 0.977102 1 0.999999 0.977459 0.887007 0.733602 0.531383 0.30127 0.136452 0.305155 0.537005 0.738389 0.88891 0.977234 1 0.999999 0.978396 0.886475 0.730204 0.527544 0.303063 0.151265 0.30864 0.535179 0.736165 0.888764 0.978106 1 0.999999 0.976537 0.876433 0.71479 0.517221 0.309744 0.182953 0.314354 0.526119 0.723421 0.881387 0.976593 1 0.999999 0.967063 0.853249 0.696228 0.515618 0.331348 0.22608 0.33267 0.519705 0.702816 0.858692 0.966857 1 0.999999 0.962126 0.835454 0.681366 0.511639 0.342504 0.255286 0.344391 0.512805 0.683567 0.838257 0.958905 1 0.999999 0.965167 0.852406 0.693402 0.51081 0.326626 0.225085 0.331696 0.51901 0.701595 0.858353 0.965683 1 0.999999 0.968435 0.864665 0.710244 0.522669 0.325585 0.208372 0.32864 0.529626 0.717621 0.869226 0.969204 1 0.999999 0.968285 0.866114 0.715206 0.527513 0.325859 0.203026 0.329118 0.533614 0.72146 0.869683 0.968857 1 0.999999 0.969756 0.86501 0.711605 0.524801 0.328301 0.212468 0.333606 0.532985 0.718813 0.868484 0.969618 1 0.999999 0.969169 0.856219 0.699028 0.518093 0.334404 0.232123 0.338709 0.525799 0.706146 0.860478 0.968604 1 0.999999 0.967984 0.842565 0.689101 0.520884 0.353013 0.264213 0.354515 0.52139 0.690129 0.843233 0.964059 1 
