# vtk DataFile Version 5.1
vtk output
ASCII

DATASET UNSTRUCTURED_GRID
POINTS 637 float
-0.991666 0 0
-0.730822 0.110415 0.110217
-0.399066 0.136223 0.136005
-0.0548479 0.145183 0.144923
0.29195 0.147389 0.147122
0.644478 0.146496 0.146233
1.00035 0.14474 0.144471
1.35623 0.146553 0.146279
1.70881 0.147376 0.147093
2.0555 0.145163 0.144894
2.39962 0.136171 0.135939
2.73143 0.110352 0.110144
2.99167 0 0
-0.991666 0.166667 0
-0.738854 0.232947 0.112411
-0.406474 0.257009 0.139281
-0.0591265 0.26384 0.14637
0.290834 0.265677 0.147746
0.645268 0.264306 0.146323
1.00018 0.262664 0.143715
1.35514 0.26433 0.146377
1.70963 0.265714 0.147716
2.05945 0.263825 0.146311
2.40669 0.257032 0.139204
2.73907 0.232881 0.112356
2.99167 0.166667 0
-0.991666 0.333333 0
-0.738814 0.364642 0.124961
-0.410612 0.377726 0.14395
-0.0620825 0.382011 0.146245
0.288926 0.382797 0.146177
0.644133 0.381899 0.147283
1.00021 0.38121 0.146433
1.35624 0.381921 0.147327
1.71151 0.382822 0.146141
2.06243 0.382033 0.146163
2.41089 0.377725 0.143859
2.73902 0.36462 0.124868
2.99167 0.333333 0
-0.991666 0.5 0
-0.738359 0.499641 0.130006
-0.411277 0.499617 0.14633
-0.0630442 0.499589 0.145277
0.287996 0.499584 0.144968
0.643555 0.499594 0.148016
1.00019 0.499595 0.148315
1.35679 0.499613 0.148047
1.71242 0.499605 0.144931
2.0634 0.499602 0.145195
2.41156 0.499637 0.146245
2.73857 0.499651 0.129931
2.99167 0.5 0
-0.991666 0.666667 0
-0.73887 0.634651 0.124987
-0.410649 0.621512 0.14396
-0.0621202 0.617166 0.146265
0.288915 0.616376 0.146213
0.644127 0.617294 0.147289
1.00017 0.617975 0.146424
1.35624 0.617302 0.147327
1.71151 0.616394 0.146179
2.06247 0.617175 0.146197
2.41093 0.621547 0.143881
2.73908 0.634693 0.124898
2.99167 0.666667 0
-0.991666 0.833333 0
-0.739026 0.766397 0.112582
-0.406538 0.742224 0.1393
-0.0591829 0.735341 0.146387
0.29081 0.733506 0.147769
0.645228 0.734893 0.14634
1.00015 0.736512 0.14374
1.35513 0.734886 0.146396
1.70964 0.733515 0.14776
2.05953 0.735385 0.146346
2.40677 0.742238 0.13924
2.73926 0.766489 0.112507
2.99167 0.833333 0
-0.991666 1 0
-0.730909 0.889029 0.110544
-0.399145 0.862989 0.136064
-0.054919 0.854008 0.144957
0.29192 0.851796 0.147126
0.644459 0.852706 0.146266
1.00033 0.854431 0.144526
1.3562 0.852666 0.146326
1.70881 0.851856 0.147139
2.05558 0.854049 0.144964
2.39972 0.863076 0.136018
2.73151 0.88912 0.110469
2.99167 1 0
-0.991666 0 0.166667
-0.738957 0.112664 0.232761
-0.406507 0.139552 0.256774
-0.0591181 0.146633 0.263576
0.290828 0.148007 0.265416
0.645258 0.146589 0.26404
1.00017 0.14399 0.262395
1.35515 0.146648 0.264057
1.70965 0.147992 0.265431
2.05947 0.146606 0.263544
2.40674 0.139479 0.256776
2.73917 0.112608 0.232689
2.99167 0 0.166667
-0.991666 0.166667 0.166667
-0.750473 0.232965 0.232763
-0.413659 0.25836 0.258101
-0.0626866 0.264943 0.264673
0.29042 0.266356 0.266096
0.646096 0.264065 0.263795
1.00011 0.261927 0.261653
1.35412 0.264097 0.263828
1.70985 0.266373 0.266094
2.0629 0.264915 0.264615
2.41381 0.258346 0.258075
2.75055 0.23291 0.232704
2.99167 0.166667 0.166667
-0.991666 0.333333 0.166667
-0.750979 0.363531 0.240656
-0.417668 0.378021 0.262161
-0.0659632 0.382464 0.264466
0.288917 0.383506 0.265184
0.645368 0.381685 0.264418
1.00009 0.38042 0.263325
1.35488 0.3817 0.264436
1.71132 0.383528 0.265194
2.06608 0.382455 0.264387
2.41779 0.378023 0.262125
2.751 0.363502 0.240564
2.99167 0.333333 0.166667
-0.991666 0.5 0.166667
-0.750994 0.499562 0.244396
-0.418177 0.499589 0.263964
-0.0669678 0.49957 0.26388
0.28788 0.499587 0.264444
0.644468 0.499597 0.26483
1.00012 0.499581 0.264811
1.35575 0.499605 0.26483
1.71232 0.499602 0.264464
2.06711 0.499587 0.263782
2.41839 0.4996 0.263944
2.75102 0.499566 0.244321
2.99167 0.5 0.166667
-0.991666 0.666667 0.166667
-0.751008 0.635608 0.240703
-0.417714 0.621168 0.262179
-0.065998 0.616683 0.264484
0.288891 0.615678 0.265201
0.645357 0.617503 0.264424
1.0001 0.618734 0.263321
1.35487 0.617506 0.264445
1.7113 0.61568 0.265215
2.06612 0.61672 0.264408
2.41788 0.621184 0.262156
2.75105 0.635658 0.240611
2.99167 0.666667 0.166667
-0.991666 0.833333 0.166667
-0.750573 0.766249 0.232897
-0.413727 0.740844 0.258129
-0.0627429 0.734217 0.264682
0.290388 0.732846 0.266105
0.646067 0.735119 0.263819
1.00007 0.737211 0.261676
1.35412 0.735105 0.263847
1.70987 0.732848 0.266119
2.06292 0.734266 0.264646
2.41388 0.740873 0.258117
2.75064 0.766326 0.232832
2.99167 0.833333 0.166667
-0.991666 1 0.166667
-0.73892 0.886718 0.232945
-0.406567 0.859665 0.256825
-0.0591924 0.85254 0.263598
0.290792 0.851195 0.265418
0.645221 0.8526 0.264068
1.00014 0.855147 0.26244
1.35513 0.85255 0.264098
1.70967 0.851231 0.265464
2.05955 0.852591 0.263593
2.40681 0.859746 0.256852
2.73915 0.886803 0.23287
2.99167 1 0.166667
-0.991666 0 0.333333
-0.738963 0.12528 0.364424
-0.410698 0.144239 0.377472
-0.062095 0.146504 0.381742
0.288923 0.146438 0.382537
0.644141 0.147543 0.381632
1.0002 0.146723 0.380941
1.35623 0.147588 0.381644
1.71153 0.146427 0.382536
2.06247 0.14644 0.381745
2.41097 0.144167 0.377454
2.73916 0.125195 0.364389
2.99167 0 0.333333
-0.991666 0.166667 0.333333
-0.751074 0.240904 0.363304
-0.417723 0.262428 0.377777
-0.0659667 0.264728 0.382189
0.288914 0.265443 0.383246
0.645349 0.264683 0.381416
1.00009 0.263611 0.380144
1.35487 0.264709 0.38143
1.71131 0.265471 0.383246
2.06609 0.264669 0.382151
2.41784 0.262416 0.377765
2.75112 0.240808 0.36327
2.99167 0.166667 0.333333
-0.991666 0.333333 0.333333
-0.7521 0.36735 0.367085
-0.423347 0.380041 0.379795
-0.0705029 0.382454 0.382178
0.288631 0.383209 0.382947
0.645925 0.381821 0.381553
1.00009 0.381294 0.38102
1.35431 0.38182 0.381536
1.71158 0.383254 0.382977
2.0707 0.38242 0.382121
2.42359 0.380031 0.379774
2.75211 0.3673 0.367038
2.99167 0.333333 0.333333
-0.991666 0.5 0.333333
-0.752521 0.499603 0.368777
-0.424938 0.499577 0.38068
-0.0723663 0.49956 0.381941
0.288303 0.499582 0.382697
0.645877 0.499594 0.381755
1.00008 0.49958 0.381601
1.35439 0.499595 0.381742
1.71184 0.499589 0.382736
2.0725 0.499576 0.38187
2.42512 0.49958 0.38067
2.75254 0.499605 0.368739
2.99167 0.5 0.333333
-0.991666 0.666667 0.333333
-0.752135 0.631877 0.367112
-0.423394 0.619126 0.379807
-0.0705437 0.616665 0.382187
0.288598 0.61596 0.382948
0.645914 0.617364 0.381555
1.00009 0.617856 0.381023
1.35432 0.617373 0.381549
1.71158 0.615925 0.382994
2.0707 0.616728 0.382132
2.4236 0.619152 0.379785
2.75214 0.631925 0.36707
2.99167 0.666667 0.333333
-0.991666 0.833333 0.333333
-0.751174 0.758399 0.36336
-0.417793 0.736757 0.37779
-0.0660246 0.734389 0.382189
0.288874 0.733734 0.383242
0.645338 0.734494 0.381434
1.0001 0.735543 0.380163
1.35489 0.734478 0.381443
1.71134 0.733714 0.383261
2.06616 0.734473 0.382172
2.41792 0.736791 0.377788
2.75122 0.758493 0.363321
2.99167 0.833333 0.333333
-0.991666 1 0.333333
-0.738981 0.87413 0.364485
-0.410764 0.854985 0.377505
-0.0621764 0.852617 0.381745
0.288887 0.852726 0.38254
0.644129 0.851643 0.381649
1.0002 0.852445 0.380968
1.35623 0.851611 0.381671
1.71156 0.852746 0.382562
2.06253 0.852701 0.381771
2.41105 0.855083 0.377502
2.73918 0.874219 0.364456
2.99167 1 0.333333
-0.991666 0 0.5
-0.738516 0.130357 0.499404
-0.411396 0.146639 0.49935
-0.0630798 0.145549 0.499312
0.287976 0.145245 0.499321
0.643533 0.148279 0.499339
1.00018 0.1486 0.499306
1.35683 0.148328 0.49934
1.71244 0.145224 0.499315
2.06342 0.145486 0.499305
2.41169 0.146556 0.499348
2.73871 0.13028 0.4994
2.99167 0 0.5
-0.991666 0.166667 0.5
-0.751112 0.244657 0.499341
-0.418285 0.264243 0.499343
-0.0669896 0.264155 0.49929
0.287862 0.264717 0.499319
0.644463 0.26509 0.499332
1.00011 0.265097 0.499306
1.35577 0.265111 0.499327
1.71238 0.264754 0.499314
2.06713 0.264077 0.49929
2.41846 0.264228 0.499336
2.75113 0.244573 0.499341
2.99167 0.166667 0.5
-0.991666 0.333333 0.5
-0.752553 0.369051 0.499341
-0.424981 0.380937 0.499326
-0.0723759 0.382225 0.499284
0.288293 0.382971 0.499305
0.645862 0.382018 0.499325
1.00007 0.381882 0.499313
1.35442 0.382016 0.499313
1.71188 0.383028 0.499299
2.07251 0.382169 0.499274
2.4252 0.380935 0.499331
2.75255 0.369007 0.499343
2.99167 0.333333 0.5
-0.991666 0.5 0.5
-0.753044 0.49961 0.499336
-0.427004 0.499582 0.499328
-0.0748896 0.499566 0.499285
0.288287 0.499577 0.499292
0.646528 0.49959 0.499318
1.0001 0.49958 0.499313
1.35376 0.4996 0.499329
1.71187 0.499584 0.499293
2.07506 0.499577 0.499288
2.42724 0.499586 0.499321
2.75305 0.499612 0.499335
2.99167 0.5 0.5
-0.991666 0.666667 0.5
-0.752579 0.630189 0.499346
-0.425033 0.618243 0.499334
-0.0724103 0.616908 0.499282
0.288264 0.616189 0.499298
0.645839 0.617157 0.499326
1.00006 0.617281 0.499316
1.35442 0.617176 0.499324
1.71191 0.616146 0.499313
2.07254 0.616985 0.499284
2.42522 0.618254 0.499322
2.75257 0.630231 0.499347
2.99167 0.666667 0.5
-0.991666 0.833333 0.5
-0.751215 0.754642 0.499345
-0.41836 0.734957 0.499336
-0.0670442 0.73497 0.499288
0.287833 0.734443 0.499317
0.644464 0.734087 0.49933
1.00012 0.734078 0.499307
1.35578 0.73408 0.499336
1.71239 0.734423 0.499326
2.06718 0.735068 0.499296
2.41857 0.734981 0.499344
2.75123 0.754729 0.499343
2.99167 0.833333 0.5
-0.991666 1 0.5
-0.73853 0.869053 0.499403
-0.411484 0.852607 0.499342
-0.0631563 0.853563 0.499308
0.287962 0.853891 0.499318
0.643554 0.850915 0.499338
1.00018 0.850608 0.499313
1.35682 0.850875 0.499351
1.71244 0.853939 0.499334
2.06346 0.853647 0.499328
2.41175 0.852681 0.49935
2.73875 0.869147 0.499396
2.99167 1 0.5
-0.991666 0 0.666667
-0.739064 0.125329 0.634409
-0.410795 0.144256 0.621226
-0.0621856 0.146545 0.616884
0.288865 0.146493 0.616119
0.644096 0.147549 0.617034
1.00016 0.146712 0.617683
1.35623 0.147606 0.617012
1.71157 0.146476 0.616111
2.0625 0.146476 0.616867
2.41106 0.144198 0.62124
2.73928 0.125247 0.634438
2.99167 0 0.666667
-0.991666 0.166667 0.666667
-0.751151 0.240953 0.635391
-0.41785 0.262446 0.620919
-0.0660486 0.264761 0.616391
0.288859 0.265474 0.615412
0.645328 0.264686 0.617234
1.0001 0.263609 0.61845
1.35489 0.264722 0.61722
[...]
POINT_DATA 637
SCALARS scalars float 1
LOOKUP_TABLE default
0.991666 0.910947 0.757274 0.591555 0.428697 0.280199 0.204503 0.280731 0.429351 0.592156 0.757791 0.911527 0.991666 0.991666 0.914875 0.758206 0.58608 0.415791 0.257512 0.172828 0.257849 0.416204 0.586375 0.758402 0.915079 0.991666 0.991666 0.914599 0.759043 0.582833 0.408048 0.244638 0.154061 0.244955 0.408438 0.583148 0.759298 0.914788 0.991666 0.991666 0.914316 0.758853 0.581484 0.405472 0.240675 0.148316 0.240965 0.405843 0.581805 0.759111 0.914515 0.991666 0.991666 0.914682 0.759126 0.582943 0.408171 0.244807 0.154308 0.245109 0.408548 0.583259 0.759382 0.914881 0.991666 0.991666 0.915114 0.758364 0.586274 0.416016 0.257856 0.173308 0.25815 0.416413 0.586589 0.758576 0.915332 0.991666 0.991666 0.91114 0.757502 0.591829 0.429006 0.280647 0.20513 0.281146 0.429625 0.592438 0.758031 0.911709 0.991666 0.991666 0.914995 0.75826 0.586094 0.415827 0.25757 0.172907 0.257905 0.416256 0.58642 0.758475 0.915189 0.991666 0.991666 0.921905 0.758133 0.579551 0.401729 0.232332 0.134525 0.232531 0.401982 0.579747 0.758274 0.921972 0.991666 0.991666 0.921119 0.758366 0.576448 0.393596 0.217311 0.107518 0.217537 0.393828 0.576549 0.758481 0.921133 0.991666 0.991666 0.920947 0.757783 0.575242 0.391203 0.212853 0.0981453 0.21305 0.391397 0.575365 0.757996 0.920965 0.991666 0.991666 0.92118 0.758462 0.576559 0.39373 0.217505 0.107887 0.217712 0.393919 0.576667 0.758621 0.921214 0.991666 0.991666 0.922071 0.7583 0.579751 0.401959 0.232709 0.135153 0.23288 0.402206 0.579912 0.758444 0.922123 0.991666 0.991666 0.915048 0.758468 0.586375 0.416145 0.258071 0.173652 0.258365 0.416558 0.586704 0.758698 0.915256 0.991666 0.991666 0.914783 0.759168 0.582887 0.408112 0.244735 0.154254 0.245054 0.408529 0.583232 0.759417 0.914962 0.991666 0.991666 0.921226 0.75844 0.576473 0.39363 0.217387 0.107654 0.217594 0.393854 0.576583 0.75855 0.921264 0.991666 0.991666 0.920015 0.759543 0.574693 0.384525 0.199495 0.0676336 0.199712 0.38474 0.574885 0.759784 0.920023 0.991666 0.991666 0.919871 0.759748 0.574427 0.38157 0.19361 0.0482694 0.193869 0.381713 0.574555 0.759928 0.919888 0.991666 0.991666 0.92008 0.759642 0.574811 0.384667 0.199705 0.0682407 0.199918 0.384851 0.574953 0.759847 0.920087 0.991666 0.991666 0.921384 0.758614 0.576681 0.393876 0.217773 0.108425 0.217977 0.394087 0.576798 0.758731 0.921426 0.991666 0.991666 0.914883 0.759382 0.583188 0.408446 0.24524 0.155053 0.245543 0.408852 0.583509 0.759643 0.915067 0.991666 0.991666 0.914522 0.759029 0.581587 0.40559 0.240855 0.148601 0.241173 0.405971 0.581902 0.759297 0.914706 0.991666 0.991666 0.921087 0.757925 0.57531 0.391289 0.212978 0.098433 0.213198 0.39153 0.575432 0.758095 0.921093 0.991666 0.991666 0.919914 0.759807 0.574461 0.381617 0.193691 0.0485534 0.193964 0.381791 0.574589 0.76003 0.919904 0.991666 0.991666 0.919711 0.760338 0.57489 0.37838 0.186807 0.000811557 0.187094 0.378539 0.575057 0.760575 0.919713 0.991666 0.991666 0.919969 0.759911 0.574569 0.381756 0.193922 0.04939 0.194168 0.381929 0.574695 0.7601 0.919963 0.991666 0.991666 0.921249 0.758104 0.575513 0.391529 0.213359 0.0992579 0.21358 0.391745 0.575629 0.758311 0.921259 0.991666 0.991666 0.91462 0.759262 0.581884 0.405913 0.241336 0.149394 0.241654 0.40627 0.582158 0.759504 0.91482 0.991666 0.991666 0.91493 0.759343 0.583101 0.40835 0.245041 0.154673 0.245335 0.408743 0.583388 0.759592 0.915129 0.991666 0.991666 0.92135 0.758646 0.576681 0.393863 0.217709 0.108272 0.217914 0.394078 0.576807 0.758794 0.921405 0.991666 0.991666 0.920142 0.759771 0.574878 0.384768 0.199861 0.0686233 0.200082 0.384977 0.575039 0.759978 0.920129 0.991666 0.991666 0.919999 0.759967 0.574595 0.381805 0.193999 0.0496666 0.194247 0.381994 0.574762 0.760199 0.919994 0.991666 0.991666 0.920204 0.75986 0.574988 0.384909 0.200063 0.0692173 0.200288 0.385123 0.575161 0.760093 0.920204 0.991666 0.991666 0.921508 0.758817 0.576881 0.394104 0.2181 0.10903 0.218295 0.394331 0.577001 0.75893 0.921562 0.991666 0.991666 0.91502 0.75956 0.583393 0.408674 0.245539 0.155457 0.245828 0.409053 0.5837 0.75982 0.915195 0.991666 0.991666 0.915405 0.758587 0.586475 0.416235 0.258142 0.173729 0.258435 0.416611 0.586777 0.758796 0.915614 0.991666 0.991666 0.922331 0.758508 0.579911 0.402148 0.232971 0.135573 0.233135 0.402373 0.58007 0.758628 0.922349 0.991666 0.991666 0.921552 0.758787 0.576783 0.394011 0.217977 0.108801 0.218171 0.394238 0.57692 0.758941 0.921599 0.991666 0.991666 0.921393 0.758227 0.575562 0.391602 0.213494 0.0995391 0.213679 0.391843 0.575683 0.758375 0.921419 0.991666 0.991666 0.921614 0.75888 0.576892 0.394135 0.218177 0.109168 0.218362 0.39436 0.577043 0.759027 0.921647 0.991666 0.991666 0.922487 0.758683 0.580103 0.402373 0.233337 0.1362 0.23351 0.402604 0.580247 0.758805 0.922548 0.991666 0.991666 0.915465 0.758811 0.586756 0.41655 0.25863 0.174468 0.258902 0.416935 0.587037 0.759019 0.915668 0.991666 0.991666 0.911432 0.757723 0.592091 0.429258 0.280957 0.205563 0.281444 0.42987 0.592702 0.758266 0.912001 0.991666 0.991666 0.915335 0.758685 0.586577 0.416351 0.258359 0.174075 0.258652 0.416745 0.586887 0.758896 0.915541 0.991666 0.991666 0.915117 0.759591 0.583316 0.408604 0.245466 0.155405 0.24578 0.409015 0.583642 0.759822 0.9153 0.991666 0.991666 0.914821 0.75942 0.581956 0.40602 0.241506 0.149676 0.241822 0.406365 0.582244 0.759666 0.915002 0.991666 0.991666 0.915196 0.759671 0.583429 0.408731 0.245642 0.155652 0.245921 0.409123 0.583748 0.759892 0.915385 0.991666 0.991666 0.915584 0.758853 0.586772 0.416575 0.258686 0.17455 0.258961 0.416954 0.587076 0.759081 0.915784 0.991666 0.991666 0.911633 0.757966 0.59237 0.42956 0.281379 0.206176 0.28188 0.430188 0.592995 0.758504 0.912207 0.991666 
