# vtk DataFile Version 5.1
vtk output
ASCII

DATASET UNSTRUCTURED_GRID
POINTS 637 float
-0.999999 0 0
-0.802696 0.0559237 0.026545
-0.601287 0.0805017 0.0354304
-0.383187 0.120503 0.0482596
-0.0979506 0.174882 0.0692791
0.351536 0.17751 0.12263
0.793964 0.158022 0.171144
1.21582 0.166603 0.195734
1.61828 0.17566 0.207476
2.0035 0.160582 0.210201
2.36404 0.145622 0.182555
2.69901 0.112429 0.119134
3 0 0
-0.999999 0.166667 0
-0.81432 0.204886 0.0222545
-0.618119 0.222464 0.032087
-0.396596 0.250466 0.0474636
-0.116751 0.290938 0.0808071
0.314019 0.294096 0.13469
0.770787 0.272887 0.181223
1.20545 0.279718 0.205955
1.61361 0.287349 0.219812
2.0042 0.275612 0.220439
2.37095 0.260876 0.192289
2.70888 0.230144 0.128226
3 0.166667 0
-0.999999 0.333333 0
-0.816413 0.355436 0.0245157
-0.62136 0.361582 0.0355171
-0.397619 0.374823 0.0561751
-0.122142 0.403454 0.0972005
0.285507 0.41265 0.14758
0.75203 0.392989 0.190247
1.19925 0.395574 0.216814
1.6142 0.401761 0.232074
2.00943 0.39082 0.232622
2.38036 0.371787 0.20848
2.71718 0.349514 0.140993
3 0.333333 0
-0.999999 0.5 0
-0.816116 0.506351 0.0284857
-0.621019 0.499782 0.0403171
-0.395746 0.498577 0.0663916
-0.111612 0.515817 0.111083
0.279004 0.528552 0.158849
0.743602 0.511872 0.198894
1.19908 0.511153 0.227667
1.62012 0.515976 0.244629
2.01806 0.505735 0.246003
2.38783 0.491003 0.221197
2.71992 0.485397 0.145861
3 0.5 0
-0.999999 0.666667 0
-0.814965 0.659011 0.0310095
-0.619385 0.638166 0.0456842
-0.388957 0.620034 0.0784902
-0.0893844 0.62802 0.122897
0.294105 0.642054 0.167775
0.752112 0.627749 0.206605
1.20921 0.624698 0.238156
1.63117 0.62876 0.257537
2.02765 0.62051 0.260042
2.39423 0.614685 0.231588
2.72116 0.626551 0.147671
3 0.666667 0
-0.999999 0.833333 0
-0.814244 0.814467 0.0309066
-0.615434 0.773334 0.0540623
-0.372721 0.739261 0.0894152
-0.0541637 0.740003 0.130858
0.323392 0.753655 0.174594
0.768205 0.741492 0.213946
1.22193 0.737071 0.248606
1.64149 0.741051 0.270742
2.03633 0.736154 0.273639
2.40036 0.74042 0.240703
2.72161 0.770067 0.148391
3 0.833333 0
-0.999999 1 0
-0.81393 0.964797 0.0381053
-0.605865 0.904329 0.0663342
-0.339936 0.856137 0.09568
-0.00973576 0.851197 0.135144
0.353952 0.863829 0.180835
0.781954 0.853655 0.221902
1.22867 0.849213 0.259553
1.64996 0.853258 0.283621
2.04518 0.852822 0.285382
2.40689 0.8676 0.248052
2.7237 0.912753 0.149705
3 1 0
-0.999999 0 0.166667
-0.8138 0.0565538 0.182546
-0.609046 0.0849782 0.184691
-0.355757 0.127365 0.176002
-0.00370093 0.176738 0.171466
0.413881 0.165964 0.220723
0.845354 0.151569 0.269377
1.2602 0.159673 0.298121
1.66128 0.163024 0.314422
2.04918 0.148508 0.317387
2.41524 0.126389 0.290879
2.75342 0.0726649 0.223086
3 0 0.166667
-0.999999 0.166667 0.166667
-0.819349 0.204443 0.182863
-0.614202 0.222885 0.186113
-0.36374 0.25071 0.187068
-0.0192084 0.288813 0.191249
0.400316 0.284525 0.230843
0.842675 0.272006 0.274137
1.2615 0.275929 0.305176
1.66659 0.277549 0.32235
2.05793 0.26368 0.324261
2.428 0.237072 0.300383
2.76391 0.187691 0.231246
3 0.166667 0.166667
-0.999999 0.333333 0.166667
-0.821229 0.353172 0.186071
-0.616476 0.360361 0.189842
-0.370002 0.375244 0.198967
-0.0293473 0.399707 0.212723
0.390369 0.400801 0.244198
0.838469 0.391375 0.282752
1.26399 0.392072 0.315248
1.6745 0.39197 0.333427
2.06897 0.378394 0.335462
2.44024 0.355617 0.309448
2.76907 0.321457 0.233684
3 0.333333 0.166667
-0.999999 0.5 0.166667
-0.821407 0.50404 0.188132
-0.616683 0.499091 0.193326
-0.365129 0.49888 0.208658
-0.0276104 0.511163 0.230287
0.389763 0.514835 0.257233
0.839519 0.50791 0.293022
1.27081 0.506265 0.326997
1.68506 0.50502 0.34644
2.0796 0.492941 0.348887
2.44859 0.478774 0.318748
2.77066 0.461926 0.235445
3 0.5 0.166667
-0.999999 0.666667 0.166667
-0.82119 0.658679 0.187031
-0.613019 0.635601 0.198634
-0.351001 0.620336 0.217221
-0.0141021 0.62329 0.243352
0.401326 0.627412 0.268235
0.849727 0.622506 0.302598
1.28191 0.619346 0.338744
1.69554 0.617612 0.360297
2.08918 0.60857 0.362535
2.45532 0.604429 0.327437
2.77194 0.60538 0.235618
3 0.666667 0.166667
-0.999999 0.833333 0.166667
-0.818552 0.809806 0.188644
-0.601672 0.768455 0.203387
-0.327057 0.739683 0.222574
0.00850983 0.735583 0.252357
0.417245 0.739005 0.278057
0.860695 0.735711 0.312103
1.29112 0.732097 0.350195
1.70472 0.729961 0.374233
2.09815 0.725206 0.375579
2.4613 0.731656 0.335832
2.77483 0.748645 0.235472
3 0.833333 0.166667
-0.999999 1 0.166667
-0.814367 0.955042 0.19644
-0.582643 0.89621 0.20782
-0.297342 0.855383 0.226661
0.0321645 0.847101 0.259429
0.428435 0.851264 0.286442
0.865183 0.848702 0.3219
1.29795 0.844116 0.361924
1.71445 0.84253 0.386954
2.1078 0.842175 0.387125
2.46509 0.86127 0.342306
2.77115 0.895181 0.237144
3 1 0.166667
-0.999999 0 0.333333
-0.809711 0.0596714 0.339809
-0.581834 0.0916679 0.320525
-0.284034 0.143815 0.285672
0.0700849 0.179088 0.282404
0.485927 0.165635 0.320858
0.910191 0.153003 0.367242
1.32484 0.156339 0.400108
1.72896 0.154431 0.41855
2.12168 0.13965 0.421185
2.49431 0.109664 0.396555
2.78489 0.047337 0.368135
3 0 0.333333
-0.999999 0.166667 0.333333
-0.81598 0.203883 0.340525
-0.592742 0.225855 0.325384
-0.299353 0.264145 0.300644
0.0636914 0.288376 0.301679
0.486664 0.281698 0.33007
0.912685 0.272238 0.372103
1.33053 0.272556 0.406187
1.73737 0.269058 0.425013
2.13185 0.254306 0.426914
2.51067 0.22604 0.397308
2.79613 0.182219 0.359654
3 0.166667 0.333333
-0.999999 0.333333 0.333333
-0.81894 0.351456 0.34231
-0.601086 0.363373 0.330392
-0.309812 0.384493 0.316725
0.0619812 0.397868 0.32121
0.487045 0.395847 0.343382
0.915581 0.389174 0.381858
1.33852 0.387238 0.416622
1.74848 0.382397 0.436136
2.14523 0.368611 0.437246
2.52023 0.347873 0.40339
2.80026 0.32513 0.357951
3 0.333333 0.333333
-0.999999 0.5 0.333333
-0.819642 0.504449 0.340442
-0.599874 0.500161 0.333842
-0.309339 0.504085 0.330351
0.0664563 0.508634 0.337784
0.491468 0.509001 0.356774
0.920947 0.50452 0.393001
1.34742 0.501171 0.428696
1.75914 0.495513 0.44936
2.15608 0.484351 0.449574
2.52512 0.473368 0.41162
2.80096 0.47201 0.358132
3 0.5 0.333333
-0.999999 0.666667 0.333333
-0.817493 0.656226 0.33964
-0.5915 0.633872 0.337251
-0.300486 0.62298 0.340821
0.0772072 0.62083 0.350555
0.502363 0.621752 0.368464
0.929952 0.61874 0.403799
1.35527 0.614809 0.441129
1.7677 0.608685 0.463605
2.16381 0.601742 0.462476
2.52841 0.601114 0.419619
2.801 0.618944 0.359927
3 0.666667 0.333333
-0.999999 0.833333 0.333333
-0.81362 0.803967 0.34006
-0.578705 0.763674 0.339294
-0.285555 0.740053 0.348481
0.0909336 0.733161 0.361227
0.514014 0.735072 0.378742
0.939665 0.732767 0.41421
1.36413 0.727577 0.453768
1.77572 0.721968 0.477743
2.16903 0.719481 0.475983
2.52677 0.730356 0.428161
2.79566 0.768077 0.360362
3 0.833333 0.333333
-0.999999 1 0.333333
-0.807926 0.949068 0.341407
-0.563516 0.888147 0.343157
-0.268711 0.85467 0.355473
0.102429 0.846814 0.369239
0.520451 0.848438 0.388543
0.945293 0.847122 0.423952
1.372 0.840183 0.465631
1.7843 0.834828 0.490838
2.17253 0.838127 0.4878
2.51627 0.863308 0.436475
2.78598 0.915781 0.362975
3 1 0.333333
-0.999999 0 0.5
-0.798021 0.0650757 0.485427
-0.541302 0.113969 0.435623
-0.230847 0.159833 0.396949
0.147072 0.171799 0.391825
0.558792 0.159213 0.423399
0.981926 0.14918 0.467132
1.40071 0.149725 0.502404
1.80883 0.14723 0.521945
2.20472 0.139888 0.524333
2.53857 0.107733 0.520694
2.79267 0.0430347 0.518466
3 0 0.5
-0.999999 0.166667 0.5
-0.8096 0.206303 0.486987
-0.561738 0.245635 0.443005
-0.243701 0.277114 0.411421
0.150345 0.280783 0.407176
0.563761 0.273107 0.432477
0.986319 0.265767 0.472613
1.40627 0.264166 0.508378
1.81596 0.260253 0.528084
2.22136 0.252431 0.527046
2.55785 0.228803 0.515928
2.80168 0.186109 0.508487
3 0.166667 0.5
-0.999999 0.333333 0.5
-0.815535 0.356969 0.486782
-0.571456 0.37878 0.451301
-0.244784 0.3938 0.426268
0.156106 0.390812 0.424167
0.569741 0.386136 0.445586
0.993906 0.381091 0.482536
1.41654 0.3782 0.518451
1.82942 0.373144 0.538248
2.23525 0.366463 0.535929
2.56836 0.35532 0.519679
2.80837 0.334664 0.505016
3 0.333333 0.5
-0.999999 0.5 0.5
-0.815421 0.509058 0.484747
-0.571532 0.510206 0.4587
-0.240026 0.510726 0.439526
0.16363 0.503213 0.439028
0.576612 0.499211 0.459029
1.00103 0.495703 0.494111
1.42615 0.492282 0.5304
1.84144 0.486529 0.551024
2.24403 0.483345 0.547429
2.57286 0.48583 0.526559
2.81141 0.48519 0.505256
3 0.5 0.5
-0.999999 0.666667 0.5
-0.813477 0.658503 0.483594
-0.568253 0.639209 0.465263
-0.232411 0.627372 0.450693
0.174251 0.616734 0.451429
0.586251 0.61328 0.470551
1.00807 0.610507 0.505482
1.4331 0.605631 0.543724
1.8482 0.60042 0.565375
2.24768 0.601424 0.560642
2.57216 0.618537 0.534535
2.81013 0.639054 0.503778
3 0.666667 0.5
-0.999999 0.833333 0.5
-0.810065 0.805682 0.480566
-0.560783 0.764811 0.470174
-0.221985 0.742626 0.460496
0.185676 0.731093 0.461669
0.596907 0.727336 0.481354
1.01639 0.725507 0.51627
1.4401 0.718813 0.557155
1.85372 0.71377 0.580683
2.24685 0.720065 0.575079
2.56472 0.75341 0.542025
2.80721 0.791665 0.501564
3 0.833333 0.5
-0.999999 1 0.5
-0.809461 0.949768 0.480891
-0.552352 0.886723 0.476232
-0.209873 0.85757 0.468336
0.194212 0.845605 0.470833
0.603104 0.842197 0.490763
1.02062 0.841663 0.525293
1.44579 0.833085 0.568246
1.85868 0.826563 0.59503
2.23855 0.841402 0.588651
2.55296 0.888851 0.549387
2.80514 0.939478 0.501662
3 1 0.5
-0.999999 0 0.666667
-0.785907 0.0833122 0.615533
-0.515023 0.139511 0.547528
-0.16608 0.161029 0.50119
0.223025 0.161975 0.500551
0.635141 0.152694 0.527713
1.05851 0.145235 0.569125
1.47957 0.146693 0.606099
1.89021 0.149761 0.626966
2.25665 0.142261 0.643278
2.5527 0.102733 0.65917
2.79949 0.0376626 0.665844
3 0 0.666667
-0.999999 0.166667 0.666667
-0.805207 0.224725 0.616339
-0.533117 0.267797 0.554838
-0.168449 0.276534 0.511967
0.22832 0.271533 0.512964
0.639246 0.265222 0.536226
1.06166 0.259797 0.574547
1.48575 0.259607 0.611216
1.90854 0.260808 0.629998
2.28626 0.255442 0.64175
2.57933 0.227363 0.652959
2.81134 0.185275 0.656601
3 0.166667 0.666667
[...]
POINT_DATA 637
SCALARS scalars float 1
LOOKUP_TABLE default
0.999999 0.971337 0.93875 0.892676 0.787416 0.527898 0.310986 0.261695 0.393824 0.568759 0.735431 0.881043 1 0.999999 0.981983 0.953627 0.901754 0.797318 0.551423 0.310907 0.238122 0.376079 0.560966 0.736113 0.887164 1 0.999999 0.983633 0.955771 0.900332 0.797862 0.572874 0.318185 0.227912 0.370708 0.562967 0.744513 0.895168 1 0.999999 0.983216 0.955204 0.898205 0.786326 0.577347 0.324715 0.230234 0.377289 0.573532 0.754382 0.898621 1 0.999999 0.982151 0.954239 0.893633 0.766949 0.565262 0.325037 0.24554 0.395564 0.590054 0.765301 0.90092 1 0.999999 0.981579 0.952198 0.882319 0.738533 0.54486 0.328537 0.272259 0.420447 0.609893 0.777739 0.902802 1 0.999999 0.981968 0.946386 0.857522 0.705639 0.530142 0.343804 0.306511 0.449695 0.632712 0.791824 0.907073 1 0.999999 0.982225 0.946375 0.865234 0.693291 0.45432 0.239662 0.226991 0.394914 0.588532 0.76926 0.924678 1 0.999999 0.986872 0.9494 0.868059 0.6971 0.453336 0.217709 0.20029 0.384174 0.587823 0.776185 0.933056 1 0.999999 0.988286 0.950476 0.871609 0.700687 0.454731 0.207212 0.18708 0.384245 0.595192 0.786955 0.938209 1 0.999999 0.988315 0.950391 0.866148 0.697275 0.452965 0.204407 0.191286 0.395037 0.60761 0.796854 0.940615 1 0.999999 0.988099 0.947402 0.853759 0.686446 0.445519 0.207387 0.21244 0.413636 0.623594 0.807274 0.943129 1 0.999999 0.985744 0.937973 0.834218 0.670871 0.440948 0.223803 0.243761 0.437837 0.642748 0.818777 0.947802 1 0.999999 0.982515 0.922756 0.812569 0.659224 0.447673 0.255272 0.282244 0.467519 0.665529 0.829203 0.946283 1 0.999999 0.978221 0.919836 0.798538 0.624961 0.385074 0.180625 0.232208 0.433164 0.643203 0.837272 0.953367 1 0.999999 0.983377 0.927999 0.805938 0.61595 0.36527 0.142381 0.208261 0.426776 0.644724 0.848506 0.963279 1 0.999999 0.985815 0.934907 0.811597 0.60824 0.352029 0.112247 0.198437 0.430487 0.654499 0.856559 0.967274 1 0.999999 0.986344 0.933207 0.809354 0.600289 0.342786 0.0991465 0.204372 0.441355 0.666481 0.862431 0.968351 1 0.999999 0.984235 0.925423 0.801712 0.59149 0.335846 0.110313 0.223339 0.457172 0.679368 0.868528 0.969209 1 0.999999 0.980749 0.914714 0.791219 0.585048 0.337168 0.14246 0.254323 0.478499 0.693478 0.871423 0.964913 1 0.999999 0.975956 0.903851 0.782641 0.585764 0.352015 0.185947 0.291901 0.505427 0.708778 0.866685 0.95682 1 0.999999 0.96699 0.884375 0.755184 0.557849 0.32648 0.153824 0.277845 0.49825 0.718884 0.878776 0.960475 1 0.999999 0.977158 0.900354 0.757057 0.536868 0.297587 0.103721 0.25882 0.492419 0.726943 0.893493 0.96858 1 0.999999 0.982575 0.907238 0.750863 0.519352 0.27428 0.0512143 0.25454 0.499151 0.736868 0.902179 0.975052 1 0.999999 0.982248 0.905865 0.74257 0.506729 0.259972 0.00736242 0.261374 0.510843 0.745724 0.906694 0.978204 1 0.999999 0.980315 0.902673 0.73512 0.497319 0.254494 0.0570008 0.276806 0.523209 0.752965 0.907432 0.977198 1 0.999999 0.977317 0.897234 0.728732 0.493229 0.25977 0.110271 0.301907 0.540007 0.75911 0.902584 0.974772 1 0.999999 0.977606 0.893216 0.724713 0.497898 0.279271 0.161666 0.332305 0.56134 0.760573 0.894598 0.973689 1 0.999999 0.957576 0.867967 0.704965 0.500648 0.286189 0.184475 0.350847 0.578032 0.770261 0.892003 0.966895 1 0.999999 0.974906 0.879471 0.694857 0.476203 0.253768 0.144779 0.336939 0.584014 0.791649 0.914783 0.978236 1 0.999999 0.978335 0.872959 0.678699 0.454241 0.223295 0.117499 0.339976 0.596846 0.808019 0.928733 0.983114 1 0.999999 0.978015 0.865759 0.665503 0.439383 0.205168 0.110143 0.349274 0.607532 0.816345 0.934832 0.984071 1 0.999999 0.977344 0.858972 0.654953 0.430124 0.201291 0.124164 0.360068 0.615378 0.819518 0.935232 0.983627 1 0.999999 0.974698 0.851674 0.646224 0.42669 0.2121 0.153891 0.375808 0.624497 0.817946 0.934945 0.983827 1 0.999999 0.976319 0.844497 0.643288 0.432646 0.236293 0.190273 0.397138 0.63642 0.817956 0.939904 0.986707 1 0.999999 0.960062 0.831693 0.661929 0.459204 0.277597 0.253202 0.437173 0.643706 0.803695 0.919695 0.979585 1 0.999999 0.965646 0.825097 0.643353 0.435266 0.245503 0.227736 0.440623 0.671726 0.840708 0.943964 0.986447 1 0.999999 0.961124 0.811602 0.623626 0.411163 0.215691 0.218359 0.454304 0.697128 0.863681 0.951805 0.988325 1 0.999999 0.958232 0.799767 0.608254 0.394062 0.196941 0.218673 0.465731 0.710752 0.874495 0.954227 0.988706 1 0.999999 0.954637 0.788304 0.595276 0.384406 0.194394 0.224546 0.472093 0.717187 0.878679 0.955325 0.988836 1 0.999999 0.952295 0.777262 0.587334 0.384693 0.20827 0.237526 0.478372 0.720652 0.884591 0.959384 0.9897 1 0.999999 0.948656 0.771388 0.587521 0.394412 0.233515 0.259136 0.489153 0.732311 0.900397 0.967945 0.991068 1 0.999999 0.930588 0.801663 0.633608 0.446306 0.303889 0.33357 0.511743 0.698185 0.86529 0.952258 0.984212 1 0.999999 0.929544 0.790809 0.616827 0.424873 0.277618 0.329348 0.545123 0.749144 0.896073 0.959557 0.984122 1 0.999999 0.927071 0.778364 0.597964 0.401535 0.25494 0.335135 0.579397 0.783697 0.905039 0.961041 0.98486 1 0.999999 0.923974 0.766781 0.58186 0.384102 0.242011 0.339886 0.597099 0.800368 0.908343 0.961539 0.98535 1 0.999999 0.922448 0.756163 0.571659 0.377846 0.241394 0.340527 0.602293 0.809398 0.911982 0.962723 0.985925 1 0.999999 0.913927 0.747464 0.568559 0.383467 0.252966 0.34153 0.597006 0.821301 0.920136 0.964723 0.985405 1 0.999999 0.903976 0.746857 0.576278 0.401965 0.277494 0.345981 0.597823 0.842307 0.928319 0.960377 0.978849 1 
