# vtk DataFile Version 5.1
vtk output
ASCII

DATASET UNSTRUCTURED_GRID
POINTS 637 float
-0.999999 0 0
-0.397859 0.155167 0.140781
0.288576 0.152438 0.154205
1.0011 0.152839 0.151666
1.7126 0.152859 0.152695
2.41146 0.145997 0.149912
3 0 0
-0.999999 0.333333 0
-0.414116 0.377182 0.162094
0.292173 0.383339 0.155551
1.00161 0.383622 0.154718
1.71461 0.382726 0.155673
2.41937 0.379914 0.157259
3 0.333333 0
-0.999999 0.666667 0
-0.417166 0.615586 0.16695
0.292021 0.612283 0.156531
1.00119 0.612334 0.156139
1.71446 0.6125 0.156791
2.41992 0.618644 0.160222
3 0.666667 0
-0.999999 1 0
-0.413387 0.840945 0.149624
0.292891 0.844809 0.160075
1.00132 0.842123 0.157944
1.71232 0.84335 0.158427
2.41053 0.850711 0.152593
3 1 0
-0.999999 0 0.333333
-0.423736 0.165402 0.374282
0.290051 0.155514 0.382374
1.00037 0.155377 0.382486
1.71184 0.155069 0.383809
2.42214 0.15761 0.381846
3 0 0.333333
-0.999999 0.333333 0.333333
-0.429153 0.384655 0.382263
0.290663 0.384896 0.384095
1.00042 0.384185 0.383224
1.71233 0.383892 0.383934
2.43058 0.383366 0.388834
3 0.333333 0.333333
-0.999999 0.666667 0.333333
-0.429923 0.61415 0.38182
0.289759 0.614073 0.384058
1.00042 0.613264 0.384973
1.7121 0.613425 0.384696
2.43184 0.616115 0.389375
3 0.666667 0.333333
-0.999999 1 0.333333
-0.424707 0.83118 0.380993
0.288885 0.843246 0.38577
1.00076 0.843133 0.387062
1.71146 0.84285 0.388297
2.42566 0.835594 0.389367
3 1 0.333333
-0.999999 0 0.666667
-0.425804 0.16243 0.610278
0.288248 0.15571 0.61073
0.998852 0.15548 0.612029
1.71066 0.155528 0.613734
2.42434 0.168078 0.618604
3 0 0.666667
-0.999999 0.333333 0.666667
-0.431989 0.381989 0.609478
0.287518 0.385082 0.614058
0.999193 0.385301 0.6138
1.70971 0.384552 0.614911
2.42946 0.384434 0.6166
3 0.333333 0.666667
-0.999999 0.666667 0.666667
-0.430619 0.614814 0.609903
0.287217 0.614603 0.614864
0.99917 0.614356 0.615535
1.70879 0.613647 0.614638
2.42858 0.613675 0.616015
3 0.666667 0.666667
-0.999999 1 0.666667
-0.4224 0.840682 0.617455
0.287645 0.843323 0.615261
0.999224 0.843068 0.616395
1.70977 0.842831 0.61631
2.42338 0.832663 0.624371
3 1 0.666667
-0.999999 0 1
-0.410507 0.148721 0.84744
0.287389 0.155555 0.840699
0.998126 0.156763 0.841267
1.70631 0.154308 0.839395
2.41243 0.15964 0.850992
3 0 1
-0.999999 0.333333 1
-0.420166 0.37997 0.83868
0.285174 0.386214 0.842009
0.998467 0.38637 0.842707
1.70721 0.386788 0.842443
2.41644 0.383758 0.831691
3 0.333333 1
-0.999999 0.666667 1
-0.419703 0.617979 0.841244
0.284902 0.61568 0.84306
0.997983 0.614972 0.844004
1.70727 0.615364 0.843083
2.41363 0.621373 0.836151
3 0.666667 1
-0.999999 1 1
-0.412425 0.851431 0.848687
0.286889 0.845294 0.846133
0.998694 0.84557 0.847102
1.71166 0.845787 0.844156
2.39803 0.842837 0.857564
3 1 1
-0.999999 0 0.166667
-0.752524 0.110131 0.234058
-0.767344 0.110743 0.107266
-0.999999 0.166667 0
-0.999999 0.166667 0.166667
-0.76308 0.23622 0.108832
-0.409129 0.265176 0.152312
-0.772425 0.366578 0.114718
-0.766989 0.236005 0.23523
-0.999999 0.166667 0.333333
-0.761995 0.36699 0.240651
-0.999999 0.333333 0.166667
-0.426333 0.163093 0.257878
-0.422741 0.270659 0.265676
-0.767039 0.113084 0.362811
-0.766078 0.239933 0.36485
-0.436007 0.383128 0.272077
-0.768119 0.368478 0.368369
-0.427306 0.275016 0.378564
-0.0596176 0.153153 0.265992
-0.0468686 0.145433 0.148752
-0.0541777 0.265415 0.148985
0.290996 0.2682 0.152215
-0.0537248 0.380334 0.15505
-0.0613122 0.268047 0.26652
-0.0652319 0.382905 0.269599
0.29342 0.151064 0.268905
0.292059 0.268228 0.267781
-0.0645219 0.155639 0.381285
-0.0668112 0.270229 0.382581
0.291284 0.383612 0.269847
-0.0684727 0.38487 0.383696
0.289755 0.269999 0.383232
0.647831 0.152298 0.266159
0.645838 0.150949 0.150255
0.647376 0.266064 0.150639
1.00274 0.268184 0.152016
0.647143 0.382354 0.15401
0.647344 0.267482 0.266834
0.647494 0.383293 0.268613
1.00293 0.152744 0.267
1.00295 0.268168 0.267242
0.645648 0.153837 0.382033
0.645945 0.268771 0.382465
1.0031 0.383246 0.268757
0.645718 0.384027 0.383485
1.00112 0.269346 0.382882
1.35927 0.152352 0.266784
1.35882 0.150328 0.150996
1.36033 0.266694 0.150309
1.7157 0.267773 0.152735
1.35869 0.382457 0.153552
1.35978 0.267573 0.266527
1.35936 0.383206 0.268033
1.7154 0.153169 0.268225
1.7162 0.268025 0.268147
1.35674 0.153644 0.382317
1.35796 0.268412 0.382094
1.71718 0.382851 0.269802
1.3563 0.383386 0.383081
1.71425 0.269407 0.382963
2.07099 0.150795 0.265869
2.06677 0.147703 0.149019
2.07011 0.264459 0.148983
2.41818 0.262758 0.151561
2.0695 0.380725 0.153813
2.07266 0.26663 0.26576
2.07505 0.382457 0.268917
2.42416 0.151836 0.266861
2.4251 0.266821 0.267892
2.06755 0.154521 0.381677
2.07144 0.26932 0.381664
2.43221 0.38145 0.274181
2.07214 0.383249 0.384471
2.42882 0.270799 0.383439
2.76891 0.112774 0.223561
2.72806 0.105306 0.108847
2.74191 0.227783 0.115954
3 0.166667 0
2.73691 0.3649 0.12662
2.76441 0.236399 0.231548
2.77243 0.364836 0.235236
3 0 0.166667
3 0.166667 0.166667
2.75849 0.115774 0.364207
2.7708 0.237758 0.362024
3 0.333333 0.166667
2.76468 0.369134 0.36811
3 0.166667 0.333333
-0.999999 0.5 0
-0.999999 0.5 0.166667
-0.767232 0.496611 0.115726
-0.418999 0.49473 0.167915
-0.772756 0.633067 0.116899
-0.766582 0.499905 0.240121
-0.999999 0.5 0.333333
-0.764225 0.631917 0.242442
-0.999999 0.666667 0.166667
-0.428462 0.498315 0.273946
-0.769181 0.498185 0.369356
-0.437199 0.613949 0.27508
-0.76689 0.630821 0.367987
-0.43264 0.498978 0.384034
-0.0600465 0.499162 0.154005
0.290772 0.498735 0.154294
-0.0559711 0.614103 0.157236
-0.0668162 0.49798 0.270443
-0.0663935 0.613948 0.270747
0.290111 0.498356 0.270324
-0.0721571 0.500015 0.384755
0.290212 0.613677 0.270347
-0.0696813 0.615083 0.384616
0.288031 0.499216 0.38509
0.647265 0.497863 0.152495
1.00327 0.498842 0.153686
0.646975 0.612842 0.154948
0.647046 0.498304 0.268957
0.647108 0.614087 0.269484
1.00318 0.498344 0.269184
0.645329 0.499018 0.384159
1.00274 0.613444 0.270349
0.645365 0.614325 0.384429
1.00139 0.498503 0.384403
1.36162 0.497676 0.152287
1.7183 0.497867 0.155543
1.35815 0.612841 0.154812
1.36104 0.498072 0.268455
1.35922 0.61344 0.26956
1.71802 0.497855 0.270112
1.35859 0.498329 0.383716
1.71711 0.612636 0.270921
1.35624 0.613896 0.384324
1.71559 0.498472 0.384364
2.07465 0.496402 0.154194
2.42329 0.497569 0.161363
2.06955 0.613735 0.156339
2.07718 0.497992 0.269807
2.07524 0.613724 0.271469
2.43003 0.498394 0.274854
2.07637 0.49828 0.38477
2.43283 0.613728 0.277238
2.07252 0.614192 0.385506
2.43431 0.499188 0.389686
2.74545 0.497282 0.125699
3 0.5 0
2.73786 0.635602 0.131022
2.76774 0.497327 0.236568
2.77255 0.631132 0.236889
3 0.5 0.166667
2.77024 0.49873 0.365693
3 0.666667 0.166667
2.7663 0.630289 0.368885
3 0.5 0.333333
-0.999999 0.833333 0
-0.999999 0.833333 0.166667
-0.767477 0.762967 0.10724
-0.416428 0.729944 0.156151
-0.769854 0.892233 0.107211
-0.764161 0.762667 0.235419
-0.999999 0.833333 0.333333
-0.76415 0.889461 0.23689
-0.999999 1 0.166667
-0.426005 0.727875 0.266407
-0.770655 0.76012 0.367882
-0.432339 0.835201 0.266652
-0.76295 0.884385 0.36762
-0.429583 0.723067 0.38258
-0.0561732 0.730005 0.153213
0.293301 0.729037 0.156584
-0.0546054 0.845377 0.153631
-0.063984 0.729667 0.269566
-0.0639102 0.845235 0.269543
0.291114 0.729511 0.271396
-0.0685182 0.727188 0.386032
0.29148 0.846284 0.272471
-0.0670789 0.841352 0.384833
0.288667 0.727919 0.386443
0.647801 0.729008 0.154018
1.00284 0.727811 0.155293
0.647234 0.844927 0.157584
0.647329 0.729254 0.270311
0.647173 0.845528 0.271364
1.00281 0.7287 0.270622
0.645404 0.72905 0.38571
1.00299 0.844478 0.272083
0.644955 0.844637 0.386468
1.0012 0.728289 0.38577
1.35994 0.728173 0.153298
1.71535 0.727876 0.156088
1.35706 0.843595 0.156895
1.3599 0.72867 0.269643
1.35849 0.844795 0.271602
1.7155 0.728172 0.270499
1.35767 0.728996 0.384956
1.71591 0.843131 0.273455
1.35622 0.844619 0.386915
1.71324 0.72801 0.385747
2.06921 0.729731 0.151868
2.42003 0.734341 0.154253
2.06323 0.845561 0.15434
2.07198 0.728866 0.268816
2.07013 0.845523 0.269897
2.42667 0.730198 0.268719
2.07175 0.727655 0.384488
2.42723 0.840925 0.272632
2.06697 0.841683 0.38642
2.42931 0.726602 0.387893
2.74437 0.770873 0.124164
3 0.833333 0
2.73145 0.907539 0.130838
2.76894 0.76285 0.233207
2.7717 0.888232 0.238477
3 0.833333 0.166667
2.7678 0.757613 0.367381
3 1 0.166667
2.76535 0.885375 0.370906
3 0.833333 0.333333
-0.999999 0 0.5
-0.766517 0.115735 0.494516
-0.999999 0.166667 0.5
-0.771015 0.240425 0.49844
-0.999999 0.166667 0.666667
-0.769639 0.370487 0.499935
-0.999999 0.333333 0.5
-0.438395 0.171369 0.491738
-0.433253 0.276442 0.496504
-0.765431 0.112784 0.627895
-0.766732 0.240294 0.629038
-0.445223 0.387598 0.496739
-0.766183 0.367976 0.63023
-0.42923 0.272094 0.61123
-0.0676592 0.156823 0.497948
-0.0693871 0.271232 0.497579
-0.0729347 0.384882 0.497488
0.288777 0.154854 0.497436
0.288 0.271021 0.497825
-0.0670304 0.156714 0.613249
-0.0703664 0.270809 0.61395
0.286221 0.385422 0.499452
-0.0725958 0.384284 0.613381
0.287221 0.270565 0.612963
0.644939 0.153889 0.497507
0.644299 0.269517 0.497914
0.644246 0.384473 0.499085
1.0012 0.154335 0.498043
1.00076 0.269953 0.497695
0.643606 0.154063 0.612163
0.643501 0.269517 0.613513
1.00066 0.384498 0.498729
0.643524 0.384746 0.614499
0.999202 0.270379 0.613011
1.35732 0.153438 0.498124
1.35742 0.269091 0.497431
1.35697 0.384327 0.498547
1.71507 0.155695 0.498971
1.71414 0.270471 0.497998
1.35476 0.154172 0.612815
1.35574 0.269496 0.612886
1.71533 0.385036 0.498706
1.35436 0.384344 0.614517
1.71173 0.27085 0.612417
2.07158 0.154433 0.497972
2.07283 0.270073 0.497082
2.07399 0.38482 0.49971
2.43954 0.170623 0.495052
2.43342 0.276347 0.499743
2.06717 0.157701 0.614593
2.0694 0.271402 0.61274
2.44562 0.386836 0.499628
2.06951 0.383549 0.614267
2.42957 0.275968 0.616373
2.77028 0.1162 0.496176
2.76748 0.241504 0.496119
2.77149 0.367506 0.498685
3 0 0.5
3 0.166667 0.5
2.76192 0.115399 0.632194
2.77206 0.23799 0.629906
3 0.333333 0.5
2.7668 0.368093 0.631558
3 0.166667 0.666667
-0.999999 0.5 0.5
[...]
POINT_DATA 637
SCALARS scalars float 1
LOOKUP_TABLE default
0.999999 0.760617 0.435854 0.215322 0.436495 0.77363 1 0.999999 0.766079 0.408586 0.162694 0.414787 0.770363 1 0.999999 0.770539 0.409658 0.165327 0.41566 0.771602 1 0.999999 0.777996 0.43522 0.223323 0.439623 0.773892 1 0.999999 0.776008 0.410401 0.162967 0.41214 0.773259 1 0.999999 0.765776 0.382903 0.0712406 0.385688 0.767557 1 0.999999 0.766595 0.383925 0.0742883 0.385927 0.768891 1 0.999999 0.778072 0.412359 0.165815 0.413158 0.778613 1 0.999999 0.778366 0.413008 0.164805 0.411539 0.77758 1 0.999999 0.768996 0.386264 0.0741361 0.383358 0.766137 1 0.999999 0.767812 0.386492 0.0731548 0.382739 0.765428 1 0.999999 0.77391 0.413337 0.164789 0.411027 0.776148 1 0.999999 0.773751 0.439802 0.223102 0.434415 0.777083 1 0.999999 0.771985 0.416286 0.166001 0.409224 0.770082 1 0.999999 0.771127 0.415902 0.164351 0.408762 0.766065 1 0.999999 0.775322 0.437996 0.21732 0.437264 0.761497 1 0.999999 0.928215 0.94665 0.999999 0.999999 0.938675 0.764299 0.946657 0.938734 0.999999 0.932212 0.999999 0.782312 0.769587 0.94099 0.936149 0.778123 0.936102 0.769647 0.588637 0.585101 0.582289 0.41786 0.576941 0.579068 0.576662 0.415435 0.401085 0.587544 0.578295 0.392538 0.573022 0.393992 0.259816 0.283755 0.259137 0.182817 0.246554 0.234071 0.217773 0.182773 0.142922 0.247514 0.218983 0.113681 0.20071 0.114015 0.265198 0.286916 0.264769 0.423973 0.25073 0.239679 0.223369 0.423973 0.408853 0.249267 0.22209 0.400536 0.202342 0.397639 0.598838 0.604356 0.597319 0.772638 0.591811 0.589707 0.586129 0.779026 0.771689 0.590194 0.582593 0.774554 0.576583 0.770866 0.944064 0.907453 0.917981 1 0.912951 0.935941 0.942125 1 1 0.932887 0.940595 1 0.932685 1 0.999999 0.999999 0.941048 0.770861 0.947264 0.936135 0.999999 0.934617 0.999999 0.769314 0.936542 0.779905 0.934887 0.76765 0.580836 0.406331 0.580164 0.576242 0.578285 0.390566 0.574463 0.39405 0.574306 0.382157 0.240584 0.153725 0.248265 0.212531 0.219126 0.10258 0.194756 0.116577 0.201699 0.0511103 0.247392 0.415206 0.252048 0.219419 0.224716 0.398355 0.198436 0.401339 0.203276 0.385654 0.594986 0.773647 0.592986 0.586327 0.587099 0.770991 0.578662 0.77591 0.577285 0.769711 0.920743 1 0.914492 0.937025 0.942505 1 0.937466 1 0.934351 1 0.999999 0.999999 0.942908 0.772797 0.948777 0.936034 0.999999 0.939984 0.999999 0.773088 0.940811 0.789563 0.937406 0.772415 0.586071 0.418089 0.595901 0.582592 0.593743 0.403469 0.580738 0.419033 0.5911 0.396001 0.262731 0.187773 0.288987 0.237006 0.263588 0.147522 0.221214 0.187906 0.249895 0.117411 0.268164 0.42594 0.292113 0.24269 0.268138 0.409748 0.223682 0.427059 0.250892 0.397706 0.598164 0.775336 0.604071 0.590344 0.599643 0.773731 0.58368 0.784213 0.591047 0.77201 0.921579 1 0.912296 0.940612 0.947726 1 0.938146 1 0.939794 1 0.999999 0.940349 0.999999 0.940579 0.999999 0.937042 0.999999 0.79057 0.774415 0.939696 0.937054 0.780452 0.934204 0.77181 0.588927 0.578914 0.575255 0.408396 0.392788 0.590708 0.582188 0.383995 0.577322 0.397062 0.243271 0.215213 0.195883 0.154352 0.103315 0.250404 0.222351 0.0511851 0.203451 0.116773 0.244738 0.216526 0.197021 0.412272 0.394704 0.249094 0.221848 0.38548 0.201374 0.396206 0.592082 0.582092 0.576292 0.791502 0.774557 0.590985 0.581457 0.780785 0.574119 0.772336 0.944133 0.937145 0.93878 1 1 0.936363 0.942155 1 0.934777 1 0.999999 0.936049 0.999999 0.9382 0.999999 0.76998 0.936426 0.780154 0.932404 0.769899 0.574566 0.575794 0.381022 0.577544 0.384854 0.576863 0.38553 0.189875 0.19671 0.00121332 0.197717 0.0526329 0.203208 0.0524785 0.191359 0.196932 0.382047 0.196214 0.385134 0.201016 0.382768 0.576466 0.575942 0.770622 0.575632 0.781288 0.573045 0.767995 0.936973 0.937911 1 0.938309 1 0.935837 1 0.999999 0.936328 0.999999 0.943373 0.999999 0.77401 0.939642 0.790165 0.933647 0.771304 0.580702 0.590893 0.394115 0.581923 0.410959 0.590818 0.397863 0.216041 0.244451 0.10481 0.22213 0.155648 0.250565 0.115841 0.217292 0.245185 0.394356 0.221026 0.410709 0.248539 0.395163 0.581318 0.590701 0.775549 0.579896 0.793631 0.587838 0.770217 0.941586 0.942551 1 0.937591 1 0.940905 1 0.999999 0.945728 0.999999 0.940295 0.999999 0.941883 0.999999 0.781804 0.772716 0.912099 0.921302 0.775634 0.915031 0.774546 0.597924 0.588629 0.586456 0.425209 0.40873 0.603991 0.596132 0.400824 0.59353 0.425002 0.266888 0.241505 0.224378 0.187344 0.147598 0.292216 0.266899 0.11702 0.252694 0.188081 0.264005 0.238048 0.219803 0.420624 0.404549 0.288394 0.26429 0.395086 0.248233 0.419099 0.595156 0.584426 0.579133 0.790952 0.773849 0.595941 0.587886 0.780625 0.580347 0.774237 0.941069 0.937439 0.935222 1 1 0.947819 0.946012 1 0.94731 1 0.999999 0.937115 0.999999 0.941808 0.999999 0.770926 0.920898 0.774634 0.913879 0.773737 0.585072 0.58584 0.397871 0.593522 0.400523 0.592782 0.414727 0.218829 0.223642 0.104137 0.246588 0.115386 0.252102 0.155077 0.214645 0.219113 0.392158 0.2431 0.394035 0.247129 0.407878 0.578703 0.577712 0.770185 0.583242 0.779117 0.577553 0.772724 0.937755 0.933106 1 0.944071 1 0.946951 1 0.999999 0.936365 0.999999 0.943638 0.999999 0.771514 0.918498 0.778412 0.908512 0.77312 0.589027 0.598274 0.408774 0.596414 0.423543 0.605832 0.423893 0.239919 0.265449 0.144973 0.264663 0.18454 0.288613 0.18467 0.236592 0.262203 0.403142 0.262028 0.418027 0.28511 0.42009 0.581835 0.590712 0.770711 0.585048 0.785398 0.585336 0.76604 0.940378 0.930758 1 0.941237 1 0.947272 1 
