# vtk DataFile Version 5.1
vtk output
ASCII

DATASET UNSTRUCTURED_GRID
POINTS 637 float
-0.999999 0 0
-0.377606 0.139572 0.128101
0.299476 0.141554 0.142367
1.00065 0.142231 0.141362
1.70201 0.141631 0.141482
2.39452 0.134946 0.137832
3 0 0
-0.999999 0.333333 0
-0.393157 0.373167 0.145464
0.30027 0.378584 0.143308
1.00133 0.379002 0.142815
1.70416 0.378886 0.143321
2.40183 0.376451 0.1445
3 0.333333 0
-0.999999 0.666667 0
-0.395377 0.618718 0.149128
0.300114 0.616537 0.144205
1.00111 0.615961 0.144293
1.70395 0.615802 0.144678
2.40222 0.618724 0.145533
3 0.666667 0
-0.999999 1 0
-0.389948 0.858159 0.137843
0.301903 0.855201 0.14717
1.00097 0.853658 0.146249
1.70154 0.853548 0.146477
2.39227 0.863752 0.139726
3 1 0
-0.999999 0 0.333333
-0.399774 0.149105 0.372983
0.298892 0.144254 0.378545
1.00043 0.143675 0.378469
1.7023 0.143344 0.37886
2.3982 0.14492 0.375573
3 0 0.333333
-0.999999 0.333333 0.333333
-0.40793 0.379783 0.378615
0.298096 0.380795 0.380778
1.00049 0.380664 0.380089
1.70357 0.380524 0.380324
2.40787 0.379588 0.381384
3 0.333333 0.333333
-0.999999 0.666667 0.333333
-0.408603 0.618762 0.380029
0.297586 0.617577 0.38146
1.00044 0.616991 0.381552
1.70334 0.616951 0.381208
2.40857 0.619366 0.383109
3 0.666667 0.333333
-0.999999 1 0.333333
-0.401534 0.848415 0.378694
0.298276 0.854506 0.382974
1.00044 0.854256 0.383376
1.70214 0.854071 0.38401
2.40038 0.850522 0.383188
3 1 0.333333
-0.999999 0 0.666667
-0.400504 0.148051 0.616113
0.297568 0.144746 0.61491
0.999184 0.144591 0.615514
1.70146 0.144284 0.616053
2.40119 0.150756 0.6207
3 0 0.666667
-0.999999 0.333333 0.666667
-0.408793 0.37913 0.615835
0.296281 0.381806 0.617563
0.999249 0.381803 0.617244
1.70204 0.381261 0.617397
2.40826 0.380016 0.618782
3 0.333333 0.666667
-0.999999 0.666667 0.666667
-0.408159 0.618934 0.617526
0.296088 0.618211 0.618466
0.999174 0.618137 0.61869
1.70155 0.617983 0.618012
2.4076 0.618754 0.620134
3 0.666667 0.666667
-0.999999 1 0.666667
-0.398438 0.853816 0.623554
0.297301 0.855309 0.620105
0.999264 0.85516 0.620393
1.70088 0.854509 0.620273
2.39963 0.849397 0.625861
3 1 0.666667
-0.999999 0 1
-0.392245 0.135623 0.859865
0.298048 0.145447 0.852532
0.998585 0.145275 0.852684
1.69767 0.143891 0.852007
2.3894 0.142021 0.862349
3 0 1
-0.999999 0.333333 1
-0.402458 0.380143 0.853433
0.295756 0.383132 0.854124
0.998529 0.382973 0.854478
1.69949 0.382485 0.85476
2.39492 0.380551 0.849653
3 0.333333 1
-0.999999 0.666667 1
-0.402218 0.622081 0.854257
0.295467 0.619859 0.855383
0.998297 0.619813 0.855931
1.69942 0.620342 0.85548
2.39281 0.625428 0.8531
3 0.666667 1
-0.999999 1 1
-0.395137 0.86346 0.860795
0.2977 0.857063 0.85732
0.999168 0.856605 0.857375
1.70051 0.85726 0.856286
2.37745 0.858699 0.870516
3 1 1
-0.999999 0 0.166667
-0.730009 0.107563 0.233434
-0.746622 0.108686 0.106894
-0.999999 0.166667 0
-0.999999 0.166667 0.166667
-0.741847 0.232458 0.107434
-0.386513 0.254718 0.137706
-0.751144 0.365522 0.112412
-0.743508 0.233005 0.234224
-0.999999 0.166667 0.333333
-0.739715 0.365525 0.238074
-0.999999 0.333333 0.166667
-0.39914 0.14551 0.251874
-0.400034 0.260069 0.256876
-0.742139 0.111194 0.36286
-0.743169 0.237032 0.365055
-0.407801 0.377897 0.261737
-0.745322 0.367292 0.367079
-0.404276 0.263691 0.376009
-0.0454862 0.142875 0.259533
-0.0402207 0.138254 0.137486
-0.0429439 0.259123 0.138379
0.300966 0.260546 0.140664
-0.0459974 0.377896 0.143036
-0.048945 0.261766 0.259151
-0.0512465 0.379458 0.261783
0.300771 0.141839 0.260883
0.300721 0.26151 0.260244
-0.050296 0.144647 0.378424
-0.0526456 0.263651 0.378793
0.299348 0.380159 0.262088
-0.0554858 0.381608 0.379936
0.29903 0.262671 0.379478
0.651512 0.142885 0.259534
0.651071 0.140225 0.140622
0.651549 0.259583 0.140167
1.00187 0.260646 0.141343
0.649929 0.378906 0.142634
0.650978 0.261394 0.260113
0.650566 0.380043 0.261399
1.00172 0.142397 0.260217
1.00167 0.261624 0.260382
0.649902 0.14311 0.378458
0.650205 0.262069 0.37918
1.00146 0.379909 0.261501
0.649448 0.380757 0.380194
1.00076 0.262125 0.379314
1.35315 0.142387 0.259352
1.35272 0.140283 0.140175
1.35342 0.259781 0.140013
1.70383 0.260527 0.141439
1.35283 0.3786 0.142367
1.35287 0.261164 0.259944
1.35317 0.380053 0.261101
1.70318 0.142344 0.260187
1.70393 0.261255 0.26049
1.3516 0.142937 0.378274
1.35236 0.261653 0.378904
1.70443 0.37964 0.261945
1.35206 0.380262 0.379999
1.70359 0.262078 0.379057
2.05318 0.140349 0.258493
2.05134 0.138248 0.138814
2.05383 0.258533 0.13934
2.39945 0.255162 0.13941
2.05451 0.378065 0.143628
2.05448 0.260039 0.259296
2.05659 0.379438 0.262496
2.39977 0.13749 0.258572
2.40299 0.257876 0.25784
2.05128 0.143932 0.377556
2.05493 0.262332 0.378487
2.40926 0.376816 0.263966
2.05636 0.380403 0.380582
2.4046 0.261365 0.377901
2.74521 0.108169 0.223348
2.71146 0.100277 0.103576
2.72344 0.223893 0.110831
3 0.166667 0
2.72198 0.363291 0.119044
2.74301 0.231879 0.230165
2.75004 0.36336 0.233012
3 0 0.166667
3 0.166667 0.166667
2.73746 0.111848 0.362386
2.74735 0.234938 0.362439
3 0.333333 0.166667
2.74299 0.367418 0.366862
3 0.166667 0.333333
-0.999999 0.5 0
-0.999999 0.5 0.166667
-0.746119 0.496447 0.113412
-0.394902 0.49455 0.150502
-0.751005 0.634526 0.113405
-0.74381 0.499244 0.238059
-0.999999 0.5 0.333333
-0.741282 0.634742 0.237529
-0.999999 0.666667 0.166667
-0.405552 0.498936 0.26348
-0.746264 0.499076 0.367703
-0.409157 0.619716 0.263654
-0.744488 0.632211 0.366201
-0.409603 0.49929 0.380088
-0.0475794 0.497974 0.142118
0.299834 0.497565 0.143465
-0.0475486 0.616253 0.145132
-0.0530936 0.498792 0.262063
-0.0526525 0.617284 0.263283
0.29892 0.498641 0.262304
-0.0565814 0.499604 0.38091
0.298812 0.616776 0.263042
-0.0556715 0.617896 0.381578
0.297603 0.49902 0.381339
0.651281 0.497568 0.141672
1.00205 0.497493 0.143022
0.650528 0.616252 0.143573
0.650466 0.49859 0.261581
0.650269 0.617265 0.262515
1.00166 0.498459 0.261697
0.649761 0.499256 0.380503
1.00134 0.616766 0.262819
0.649263 0.617692 0.381358
1.00087 0.498839 0.380657
1.35408 0.49716 0.141737
1.70554 0.497358 0.143623
1.35253 0.616084 0.143723
1.35355 0.498324 0.261494
1.3529 0.616961 0.262484
1.70536 0.498224 0.262125
1.35284 0.498729 0.380376
1.70487 0.616418 0.262971
1.35173 0.617263 0.381219
1.70463 0.498816 0.380685
2.05699 0.49673 0.14303
2.40388 0.496406 0.146098
2.05495 0.616867 0.144455
2.05803 0.498099 0.262493
2.0573 0.617138 0.263344
2.40806 0.498788 0.263345
2.05875 0.498932 0.380918
2.41 0.61902 0.264541
2.05694 0.617228 0.382031
2.4098 0.499498 0.382245
2.72695 0.496198 0.118778
3 0.5 0
2.7232 0.636826 0.120792
2.74577 0.497751 0.234353
2.74987 0.634014 0.233443
3 0.5 0.166667
2.74714 0.49863 0.365056
3 0.666667 0.166667
2.74414 0.632261 0.366619
3 0.5 0.333333
-0.999999 0.833333 0
-0.999999 0.833333 0.166667
-0.745527 0.765323 0.105155
-0.392344 0.739404 0.143121
-0.745954 0.897866 0.102536
-0.741375 0.766919 0.231783
-0.999999 0.833333 0.333333
-0.739788 0.892588 0.233353
-0.999999 1 0.166667
-0.401605 0.73861 0.258401
-0.747275 0.763229 0.36526
-0.404046 0.852291 0.258654
-0.739936 0.887143 0.365758
-0.406423 0.7347 0.379419
-0.0452721 0.736194 0.142203
0.301219 0.735745 0.145054
-0.0432231 0.856528 0.142597
-0.0507158 0.735876 0.262204
-0.0493206 0.855133 0.261985
0.299834 0.735713 0.263622
-0.0534644 0.734602 0.381861
0.300046 0.8549 0.265008
-0.0513787 0.852731 0.381242
0.298252 0.735753 0.382688
0.651597 0.735001 0.143444
1.00175 0.73481 0.144606
0.651527 0.854668 0.145978
0.650789 0.735733 0.263218
0.651017 0.854931 0.264435
1.00153 0.73545 0.263242
0.649963 0.736056 0.382202
1.00191 0.854356 0.264646
0.649664 0.854879 0.383263
1.00082 0.735609 0.382233
1.3532 0.734806 0.143214
1.70393 0.734505 0.144898
1.35149 0.854259 0.145596
1.3529 0.7355 0.262919
1.35241 0.854513 0.264623
1.70406 0.735208 0.263101
1.35197 0.735918 0.381879
1.70376 0.853777 0.265221
1.35136 0.855006 0.383398
1.7031 0.735394 0.382042
2.05372 0.736046 0.142337
2.39969 0.740764 0.141535
2.04899 0.856824 0.14389
2.05485 0.736412 0.261846
2.05241 0.856251 0.263499
2.40356 0.739659 0.258387
2.05618 0.734761 0.381058
2.40275 0.855894 0.261844
2.05213 0.853188 0.382468
2.40565 0.73625 0.380957
2.72579 0.772657 0.115061
3 0.833333 0
2.71534 0.911299 0.120013
2.74585 0.766439 0.229793
2.74575 0.891849 0.23483
3 0.833333 0.166667
2.745 0.76212 0.364343
3 1 0.166667
2.74176 0.887944 0.368674
3 0.833333 0.333333
-0.999999 0 0.5
-0.742647 0.114528 0.496202
-0.999999 0.166667 0.5
-0.748094 0.237903 0.500437
-0.999999 0.166667 0.666667
-0.746401 0.368636 0.501002
-0.999999 0.333333 0.5
-0.408698 0.152745 0.494587
-0.407262 0.264902 0.497938
-0.741867 0.110835 0.630912
-0.744082 0.236675 0.633621
-0.41531 0.381459 0.497848
-0.744201 0.366619 0.633048
-0.405122 0.262514 0.618119
-0.051565 0.145398 0.497433
-0.0542449 0.263906 0.497882
-0.0572034 0.381404 0.497872
0.297751 0.144747 0.497104
0.297908 0.263485 0.498273
-0.05229 0.145636 0.61677
-0.0549883 0.263978 0.617714
0.296047 0.381726 0.499297
-0.0571021 0.381552 0.616877
0.297453 0.263412 0.616818
0.649744 0.143548 0.496897
0.649499 0.262459 0.498021
0.648829 0.381147 0.498975
1.00086 0.14395 0.497231
1.00066 0.262772 0.497889
0.648379 0.143923 0.615606
0.649048 0.262925 0.616875
1.00039 0.381145 0.498748
0.647976 0.381638 0.617654
0.999709 0.263241 0.616601
1.35211 0.143147 0.497248
1.35201 0.262173 0.497671
1.35217 0.380972 0.49865
1.70458 0.14436 0.497304
1.70374 0.26267 0.497807
1.35007 0.144191 0.615751
1.35115 0.262827 0.616597
1.70454 0.381198 0.49867
1.35047 0.381229 0.617573
1.70232 0.263141 0.616196
2.05479 0.143774 0.497662
2.05606 0.262906 0.497558
2.0582 0.38102 0.499183
2.41042 0.151727 0.495478
2.40814 0.263962 0.498576
2.05118 0.146528 0.618005
2.0545 0.264389 0.617036
2.41572 0.380497 0.498983
2.05542 0.381102 0.617342
2.40685 0.264358 0.619595
2.74634 0.113897 0.496077
2.74558 0.237415 0.497925
2.74823 0.366179 0.499058
3 0 0.5
3 0.166667 0.5
2.73914 0.112538 0.634337
2.74854 0.235599 0.633362
3 0.333333 0.5
2.74434 0.367057 0.633631
3 0.166667 0.666667
-0.999999 0.5 0.5
[...]
POINT_DATA 637
SCALARS scalars float 1
LOOKUP_TABLE default
0.999999 0.735748 0.418491 0.200533 0.419524 0.752984 1 0.999999 0.74198 0.39602 0.149945 0.400156 0.75047 1 0.999999 0.745357 0.397075 0.152947 0.401091 0.751343 1 0.999999 0.749837 0.41914 0.206895 0.422466 0.751385 1 0.999999 0.749167 0.397632 0.150598 0.398443 0.746949 1 0.999999 0.744096 0.37463 0.0665317 0.376178 0.744199 1 0.999999 0.744946 0.375429 0.0692309 0.376387 0.745074 1 0.999999 0.751708 0.399179 0.154097 0.39985 0.75044 1 0.999999 0.750328 0.39983 0.153375 0.398615 0.751239 1 0.999999 0.745274 0.376758 0.0692281 0.375062 0.744606 1 0.999999 0.74465 0.376829 0.0682463 0.374593 0.743939 1 0.999999 0.747474 0.399418 0.152054 0.398008 0.749392 1 0.999999 0.751329 0.422825 0.206903 0.418742 0.749306 1 0.999999 0.751706 0.401664 0.153763 0.396968 0.74511 1 0.999999 0.751175 0.401116 0.151505 0.396293 0.741997 1 0.999999 0.754115 0.420624 0.202249 0.419343 0.736166 1 0.999999 0.905569 0.925924 0.999999 0.999999 0.917207 0.738169 0.925229 0.915086 0.999999 0.90976 0.999999 0.751632 0.744774 0.916059 0.913104 0.748535 0.913245 0.745186 0.571483 0.57433 0.567878 0.40291 0.566179 0.564746 0.561291 0.403577 0.389446 0.570773 0.56293 0.382389 0.559524 0.382757 0.249197 0.26955 0.24764 0.169745 0.236767 0.225741 0.211093 0.170387 0.133425 0.236989 0.211517 0.105664 0.195598 0.105958 0.252274 0.27193 0.251298 0.407528 0.238693 0.228697 0.214206 0.407178 0.393815 0.238013 0.2135 0.385921 0.196855 0.385078 0.578042 0.585112 0.57843 0.751157 0.574549 0.569863 0.566654 0.751528 0.747537 0.571469 0.564927 0.750199 0.560339 0.745318 0.920017 0.889883 0.898805 1 0.897081 0.91422 0.91959 1 1 0.911479 0.917025 1 0.910915 1 0.999999 0.999999 0.919811 0.743644 0.92521 0.913272 0.999999 0.911269 0.999999 0.745201 0.913578 0.750269 0.912398 0.744406 0.565725 0.393897 0.568695 0.561262 0.563204 0.379981 0.558611 0.383529 0.55989 0.372174 0.230695 0.143059 0.23785 0.206037 0.212462 0.0950575 0.189537 0.108338 0.196435 0.0473457 0.234996 0.39896 0.240337 0.209568 0.215257 0.384085 0.192032 0.387088 0.197439 0.374309 0.575066 0.751554 0.575598 0.5662 0.567786 0.74767 0.560769 0.751264 0.561248 0.744741 0.901486 1 0.898519 0.914947 0.919545 1 0.914361 1 0.912068 1 0.999999 0.999999 0.92075 0.745597 0.924024 0.912793 0.999999 0.915229 0.999999 0.746674 0.917183 0.757633 0.914175 0.747725 0.571821 0.405113 0.579663 0.567374 0.576043 0.391786 0.564292 0.406369 0.572714 0.384301 0.251543 0.174988 0.274745 0.228408 0.252671 0.137515 0.21325 0.175544 0.239348 0.109279 0.254976 0.410001 0.276764 0.231344 0.255467 0.395428 0.214906 0.410261 0.240088 0.385603 0.579937 0.752283 0.585312 0.57124 0.578965 0.748465 0.56686 0.756071 0.573429 0.74685 0.901884 1 0.894546 0.917143 0.92133 1 0.914972 1 0.915989 1 0.999999 0.916506 0.999999 0.917531 0.999999 0.91375 0.999999 0.757609 0.747085 0.915967 0.914033 0.750191 0.912096 0.746231 0.570413 0.562714 0.559277 0.396306 0.381261 0.573344 0.565577 0.373767 0.561397 0.38492 0.233068 0.207305 0.190602 0.143979 0.0961312 0.239852 0.213789 0.0478296 0.197719 0.108781 0.234285 0.208517 0.19153 0.398335 0.382655 0.238792 0.213981 0.374285 0.196187 0.384711 0.573121 0.564328 0.560238 0.759088 0.747827 0.572393 0.565227 0.750542 0.559651 0.748081 0.920094 0.914993 0.915487 1 1 0.913344 0.9184 1 0.912232 1 0.999999 0.91357 0.999999 0.914571 0.999999 0.745609 0.913369 0.750059 0.91097 0.744479 0.557896 0.559528 0.37027 0.559827 0.373831 0.560726 0.373979 0.184367 0.191046 0.00109543 0.191318 0.0489852 0.197655 0.0485666 0.185774 0.191616 0.371418 0.190934 0.374557 0.195898 0.372829 0.559352 0.560252 0.746609 0.559809 0.750772 0.559545 0.744923 0.914698 0.914834 1 0.915147 1 0.913057 1 0.999999 0.914037 0.999999 0.918992 0.999999 0.746935 0.91596 0.757764 0.912037 0.745157 0.563202 0.571892 0.381823 0.564247 0.397204 0.571974 0.38503 0.207921 0.233823 0.0972844 0.213386 0.145071 0.239075 0.107503 0.209086 0.234832 0.38274 0.213295 0.39822 0.237712 0.383757 0.564473 0.572115 0.748365 0.564389 0.75988 0.570926 0.746004 0.918753 0.918651 1 0.914376 1 0.916002 1 0.999999 0.919242 0.999999 0.916376 0.999999 0.918607 0.999999 0.754153 0.747344 0.894527 0.900985 0.750973 0.898837 0.751195 0.577416 0.569835 0.56707 0.408706 0.394354 0.585295 0.57808 0.386619 0.575937 0.409003 0.254287 0.230301 0.214863 0.175239 0.137659 0.276958 0.253789 0.108892 0.240968 0.175378 0.253536 0.229564 0.213379 0.407698 0.392936 0.274672 0.253248 0.384266 0.238064 0.406324 0.577467 0.568832 0.56414 0.75904 0.747758 0.579574 0.573698 0.75104 0.568718 0.746982 0.916453 0.91415 0.912202 1 1 0.923109 0.923311 1 0.924905 1 0.999999 0.91453 0.999999 0.918852 0.999999 0.746984 0.900752 0.749973 0.897632 0.750869 0.565088 0.56622 0.383357 0.573465 0.385828 0.575253 0.398252 0.208943 0.214302 0.0964751 0.234139 0.107259 0.239849 0.144276 0.207952 0.2125 0.38145 0.233025 0.383507 0.237499 0.395458 0.563029 0.5624 0.746385 0.567943 0.749373 0.566485 0.74529 0.914771 0.910776 1 0.922444 1 0.925089 1 0.999999 0.913855 0.999999 0.919215 0.999999 0.7469 0.898259 0.750836 0.890744 0.75084 0.569117 0.577208 0.393401 0.577169 0.406546 0.586081 0.407112 0.228685 0.252198 0.135225 0.250972 0.171946 0.273314 0.171427 0.22796 0.251329 0.391236 0.250309 0.405806 0.270645 0.404866 0.566704 0.573421 0.746142 0.570472 0.753877 0.574677 0.739924 0.916536 0.907594 1 0.91966 1 0.92621 1 
