# vtk DataFile Version 5.1
vtk output
ASCII

DATASET UNSTRUCTURED_GRID
POINTS 856 float
0 0 0
0.166667 0 0
0.333333 0 0
0.5 0 0
0.666667 0 0
0.833333 0 0
1 0 0
1.16667 0 0
1.33333 0 0
1.5 0 0
1.66667 0 0
1.83333 0 0
2 0 0
2.16667 0 0
2.33333 0 0
2.5 0 0
2.66667 0 0
2.83333 0 0
3 0 0
0 0.333333 0
0.166667 0.333333 0
0.333333 0.333333 0
0.5 0.333333 0
0.666667 0.333333 0
0.833333 0.333333 0
1 0.333333 0
1.16667 0.333333 0
1.33333 0.333333 0
1.5 0.333333 0
1.66667 0.333333 0
1.83333 0.333333 0
2 0.333333 0
2.16667 0.333333 0
2.33333 0.333333 0
2.5 0.333333 0
2.66667 0.333333 0
2.83333 0.333333 0
3 0.333333 0
0 0.666667 0
0.166667 0.666667 0
0.333333 0.666667 0
0.5 0.666667 0
0.666667 0.666667 0
0.833333 0.666667 0
1 0.666667 0
1.16667 0.666667 0
1.33333 0.666667 0
1.5 0.666667 0
1.66667 0.666667 0
1.83333 0.666667 0
2 0.666667 0
2.16667 0.666667 0
2.33333 0.666667 0
2.5 0.666667 0
2.66667 0.666667 0
2.83333 0.666667 0
3 0.666667 0
0 1 0
0.166667 1 0
0.333333 1 0
0.5 1 0
0.666667 1 0
0.833333 1 0
1 1 0
1.16667 1 0
1.33333 1 0
1.5 1 0
1.66667 1 0
1.83333 1 0
2 1 0
2.16667 1 0
2.33333 1 0
2.5 1 0
2.66667 1 0
2.83333 1 0
3 1 0
0 0 0.166667
0.166667 0 0.166667
0.333333 0 0.166667
0.5 0 0.166667
0.666667 0 0.166667
0.833333 0 0.166667
1 0 0.166667
1.16667 0 0.166667
1.33333 0 0.166667
1.5 0 0.166667
1.66667 0 0.166667
1.83333 0 0.166667
2 0 0.166667
2.16667 0 0.166667
2.33333 0 0.166667
2.5 0 0.166667
2.66667 0 0.166667
2.83333 0 0.166667
3 0 0.166667
0 0.333333 0.166667
0.166667 0.333333 0.166667
0.333333 0.333333 0.166667
0.5 0.333333 0.166667
0.666667 0.333333 0.166667
0.833333 0.333333 0.166667
1 0.333333 0.166667
1.16667 0.333333 0.166667
1.33333 0.333333 0.166667
1.5 0.333333 0.166667
1.66667 0.333333 0.166667
1.83333 0.333333 0.166667
2 0.333333 0.166667
2.16667 0.333333 0.166667
2.33333 0.333333 0.166667
2.5 0.333333 0.166667
2.66667 0.333333 0.166667
2.83333 0.333333 0.166667
3 0.333333 0.166667
0 0.666667 0.166667
0.166667 0.666667 0.166667
0.333333 0.666667 0.166667
0.5 0.666667 0.166667
0.666667 0.666667 0.166667
0.833333 0.666667 0.166667
1 0.666667 0.166667
1.16667 0.666667 0.166667
1.33333 0.666667 0.166667
1.5 0.666667 0.166667
1.66667 0.666667 0.166667
1.83333 0.666667 0.166667
2 0.666667 0.166667
2.16667 0.666667 0.166667
2.33333 0.666667 0.166667
2.5 0.666667 0.166667
2.66667 0.666667 0.166667
2.83333 0.666667 0.166667
3 0.666667 0.166667
0 1 0.166667
0.166667 1 0.166667
0.333333 1 0.166667
0.5 1 0.166667
0.666667 1 0.166667
0.833333 1 0.166667
1 1 0.166667
1.16667 1 0.166667
1.33333 1 0.166667
1.5 1 0.166667
1.66667 1 0.166667
1.83333 1 0.166667
2 1 0.166667
2.16667 1 0.166667
2.33333 1 0.166667
2.5 1 0.166667
2.66667 1 0.166667
2.83333 1 0.166667
3 1 0.166667
0 0 0.333333
0.166667 0 0.333333
0.333333 0 0.333333
0.5 0 0.333333
0.666667 0 0.333333
0.833333 0 0.333333
1 0 0.333333
1.16667 0 0.333333
1.33333 0 0.333333
1.5 0 0.333333
1.66667 0 0.333333
1.83333 0 0.333333
2 0 0.333333
2.16667 0 0.333333
2.33333 0 0.333333
2.5 0 0.333333
2.66667 0 0.333333
2.83333 0 0.333333
3 0 0.333333
0 0.333333 0.333333
0.166667 0.333333 0.333333
0.333333 0.333333 0.333333
0.5 0.333333 0.333333
0.666667 0.333333 0.333333
0.833333 0.333333 0.333333
1 0.333333 0.333333
1.16667 0.333333 0.333333
1.33333 0.333333 0.333333
1.5 0.333333 0.333333
1.66667 0.333333 0.333333
1.83333 0.333333 0.333333
2 0.333333 0.333333
2.16667 0.333333 0.333333
2.33333 0.333333 0.333333
2.5 0.333333 0.333333
2.66667 0.333333 0.333333
2.83333 0.333333 0.333333
3 0.333333 0.333333
0 0.666667 0.333333
0.166667 0.666667 0.333333
0.333333 0.666667 0.333333
0.5 0.666667 0.333333
0.666667 0.666667 0.333333
0.833333 0.666667 0.333333
1 0.666667 0.333333
1.16667 0.666667 0.333333
1.33333 0.666667 0.333333
1.5 0.666667 0.333333
1.66667 0.666667 0.333333
1.83333 0.666667 0.333333
2 0.666667 0.333333
2.16667 0.666667 0.333333
2.33333 0.666667 0.333333
2.5 0.666667 0.333333
2.66667 0.666667 0.333333
2.83333 0.666667 0.333333
3 0.666667 0.333333
0 1 0.333333
0.166667 1 0.333333
0.333333 1 0.333333
0.5 1 0.333333
0.666667 1 0.333333
0.833333 1 0.333333
1 1 0.333333
1.16667 1 0.333333
1.33333 1 0.333333
1.5 1 0.333333
1.66667 1 0.333333
1.83333 1 0.333333
2 1 0.333333
2.16667 1 0.333333
2.33333 1 0.333333
2.5 1 0.333333
2.66667 1 0.333333
2.83333 1 0.333333
3 1 0.333333
0 0 0.5
0.166667 0 0.5
0.333333 0 0.5
0.5 0 0.5
0.666667 0 0.5
0.833333 0 0.5
1 0 0.5
1.16667 0 0.5
1.33333 0 0.5
1.5 0 0.5
1.66667 0 0.5
1.83333 0 0.5
2 0 0.5
2.16667 0 0.5
2.33333 0 0.5
2.5 0 0.5
2.66667 0 0.5
2.83333 0 0.5
3 0 0.5
0 0.333333 0.5
0.166667 0.333333 0.5
0.333333 0.333333 0.5
0.5 0.333333 0.5
0.666667 0.333333 0.5
0.833333 0.333333 0.5
1 0.333333 0.5
1.16667 0.333333 0.5
1.33333 0.333333 0.5
1.5 0.333333 0.5
1.66667 0.333333 0.5
1.83333 0.333333 0.5
2 0.333333 0.5
2.16667 0.333333 0.5
2.33333 0.333333 0.5
2.5 0.333333 0.5
2.66667 0.333333 0.5
2.83333 0.333333 0.5
3 0.333333 0.5
0 0.666667 0.5
0.166667 0.666667 0.5
0.333333 0.666667 0.5
0.5 0.666667 0.5
0.666667 0.666667 0.5
0.833333 0.666667 0.5
1 0.666667 0.5
1.16667 0.666667 0.5
1.33333 0.666667 0.5
1.5 0.666667 0.5
1.66667 0.666667 0.5
1.83333 0.666667 0.5
2 0.666667 0.5
2.16667 0.666667 0.5
2.33333 0.666667 0.5
2.5 0.666667 0.5
2.66667 0.666667 0.5
2.83333 0.666667 0.5
3 0.666667 0.5
0 1 0.5
0.166667 1 0.5
0.333333 1 0.5
0.5 1 0.5
0.666667 1 0.5
0.833333 1 0.5
1 1 0.5
1.16667 1 0.5
1.33333 1 0.5
1.5 1 0.5
1.66667 1 0.5
1.83333 1 0.5
2 1 0.5
2.16667 1 0.5
2.33333 1 0.5
2.5 1 0.5
2.66667 1 0.5
2.83333 1 0.5
3 1 0.5
0 0 0.666667
0.166667 0 0.666667
0.333333 0 0.666667
0.5 0 0.666667
0.666667 0 0.666667
0.833333 0 0.666667
1 0 0.666667
1.16667 0 0.666667
1.33333 0 0.666667
1.5 0 0.666667
1.66667 0 0.666667
1.83333 0 0.666667
2 0 0.666667
2.16667 0 0.666667
2.33333 0 0.666667
2.5 0 0.666667
2.66667 0 0.666667
2.83333 0 0.666667
3 0 0.666667
0 0.333333 0.666667
0.166667 0.333333 0.666667
0.333333 0.333333 0.666667
0.5 0.333333 0.666667
0.666667 0.333333 0.666667
0.833333 0.333333 0.666667
1 0.333333 0.666667
1.16667 0.333333 0.666667
1.33333 0.333333 0.666667
1.5 0.333333 0.666667
1.66667 0.333333 0.666667
1.83333 0.333333 0.666667
2 0.333333 0.666667
2.16667 0.333333 0.666667
2.33333 0.333333 0.666667
2.5 0.333333 0.666667
2.66667 0.333333 0.666667
2.83333 0.333333 0.666667
3 0.333333 0.666667
0 0.666667 0.666667
0.166667 0.666667 0.666667
0.333333 0.666667 0.666667
0.5 0.666667 0.666667
0.666667 0.666667 0.666667
0.833333 0.666667 0.666667
1 0.666667 0.666667
1.16667 0.666667 0.666667
1.33333 0.666667 0.666667
1.5 0.666667 0.666667
1.66667 0.666667 0.666667
1.83333 0.666667 0.666667
2 0.666667 0.666667
2.16667 0.666667 0.666667
2.33333 0.666667 0.666667
2.5 0.666667 0.666667
2.66667 0.666667 0.666667
2.83333 0.666667 0.666667
3 0.666667 0.666667
0 1 0.666667
0.166667 1 0.666667
0.333333 1 0.666667
0.5 1 0.666667
0.666667 1 0.666667
0.833333 1 0.666667
1 1 0.666667
1.16667 1 0.666667
1.33333 1 0.666667
1.5 1 0.666667
1.66667 1 0.666667
1.83333 1 0.666667
2 1 0.666667
2.16667 1 0.666667
2.33333 1 0.666667
2.5 1 0.666667
2.66667 1 0.666667
2.83333 1 0.666667
3 1 0.666667
0 0 0.833333
0.166667 0 0.833333
0.333333 0 0.833333
0.5 0 0.833333
0.666667 0 0.833333
0.833333 0 0.833333
1 0 0.833333
1.16667 0 0.833333
1.33333 0 0.833333
1.5 0 0.833333
1.66667 0 0.833333
1.83333 0 0.833333
2 0 0.833333
2.16667 0 0.833333
2.33333 0 0.833333
2.5 0 0.833333
2.66667 0 0.833333
2.83333 0 0.833333
3 0 0.833333
0 0.333333 0.833333
0.166667 0.333333 0.833333
0.333333 0.333333 0.833333
0.5 0.333333 0.833333
0.666667 0.333333 0.833333
0.833333 0.333333 0.833333
1 0.333333 0.833333
1.16667 0.333333 0.833333
1.33333 0.333333 0.833333
1.5 0.333333 0.833333
1.66667 0.333333 0.833333
1.83333 0.333333 0.833333
2 0.333333 0.833333
2.16667 0.333333 0.833333
2.33333 0.333333 0.833333
2.5 0.333333 0.833333
2.66667 0.333333 0.833333
2.83333 0.333333 0.833333
3 0.333333 0.833333
0 0.666667 0.833333
0.166667 0.666667 0.833333
0.333333 0.666667 0.833333
0.5 0.666667 0.833333
0.666667 0.666667 0.833333
0.833333 0.666667 0.833333
1 0.666667 0.833333
1.16667 0.666667 0.833333
1.33333 0.666667 0.833333
1.5 0.666667 0.833333
1.66667 0.666667 0.833333
1.83333 0.666667 0.833333
2 0.666667 0.833333
2.16667 0.666667 0.833333
2.33333 0.666667 0.833333
2.5 0.666667 0.833333
2.66667 0.666667 0.833333
2.83333 0.666667 0.833333
3 0.666667 0.833333
0 1 0.833333
0.166667 1 0.833333
0.333333 1 0.833333
0.5 1 0.833333
0.666667 1 0.833333
0.833333 1 0.833333
1 1 0.833333
1.16667 1 0.833333
1.33333 1 0.833333
1.5 1 0.833333
1.66667 1 0.833333
1.83333 1 0.833333
2 1 0.833333
2.16667 1 0.833333
2.33333 1 0.833333
2.5 1 0.833333
2.66667 1 0.833333
2.83333 1 0.833333
3 1 0.833333
0 0 1
0.166667 0 1
0.333333 0 1
0.5 0 1
0.666667 0 1
0.833333 0 1
1 0 1
1.16667 0 1
1.33333 0 1
1.5 0 1
1.66667 0 1
1.83333 0 1
2 0 1
2.16667 0 1
2.33333 0 1
2.5 0 1
2.66667 0 1
2.83333 0 1
3 0 1
0 0.333333 1
0.166667 0.333333 1
0.333333 0.333333 1
0.5 0.333333 1
0.666667 0.333333 1
0.833333 0.333333 1
1 0.333333 1
1.16667 0.333333 1
1.33333 0.333333 1
1.5 0.333333 1
1.66667 0.333333 1
1.83333 0.333333 1
2 0.333333 1
2.16667 0.333333 1
2.33333 0.333333 1
2.5 0.333333 1
2.66667 0.333333 1
2.83333 0.333333 1
3 0.333333 1
0 0.666667 1
0.166667 0.666667 1
0.333333 0.666667 1
0.5 0.666667 1
0.666667 0.666667 1
0.833333 0.666667 1
1 0.666667 1
1.16667 0.666667 1
1.33333 0.666667 1
1.5 0.666667 1
1.66667 0.666667 1
1.83333 0.666667 1
2 0.666667 1
2.16667 0.666667 1
2.33333 0.666667 1
2.5 0.666667 1
2.66667 0.666667 1
2.83333 0.666667 1
3 0.666667 1
0 1 1
0.166667 1 1
0.333333 1 1
0.5 1 1
0.666667 1 1
0.833333 1 1
1 1 1
1.16667 1 1
1.33333 1 1
1.5 1 1
1.66667 1 1
1.83333 1 1
2 1 1
2.16667 1 1
2.33333 1 1
2.5 1 1
2.66667 1 1
2.83333 1 1
3 1 1
0.0833333 0.166667 0.0833333
0.25 0.166667 0.0833333
0.416667 0.166667 0.0833333
0.583333 0.166667 0.0833333
0.75 0.166667 0.0833333
0.916667 0.166667 0.0833333
1.08333 0.166667 0.0833333
1.25 0.166667 0.0833333
1.41667 0.166667 0.0833333
1.58333 0.166667 0.0833333
[...]
POINT_DATA 856
SCALARS weights float 1
LOOKUP_TABLE default
0.925926 1.85185 1.85185 1.85185 1.85185 1.85185 1.85185 1.85185 1.85185 1.85185 1.85185 1.85185 1.85185 1.85185 1.85185 1.85185 1.85185 1.85185 0.925926 1.85185 3.7037 3.7037 3.7037 3.7037 3.7037 3.7037 3.70371 3.7037 3.7037 3.70371 3.7037 3.7037 3.70371 3.7037 3.7037 3.70371 3.7037 1.85185 1.85185 3.7037 3.7037 3.7037 3.70371 3.7037 3.7037 3.70371 3.7037 3.7037 3.70371 3.7037 3.7037 3.70371 3.7037 3.7037 3.70371 3.7037 1.85185 0.925926 1.85185 1.85185 1.85185 1.85185 1.85185 1.85185 1.85185 1.85185 1.85185 1.85185 1.85185 1.85185 1.85185 1.85185 1.85185 1.85185 1.85185 0.925925 1.85185 3.7037 3.7037 3.7037 3.7037 3.7037 3.7037 3.70371 3.7037 3.7037 3.70371 3.7037 3.7037 3.70371 3.7037 3.7037 3.70371 3.7037 1.85185 3.7037 7.40741 7.40741 7.40741 7.40741 7.40741 7.40741 7.40741 7.40741 7.40741 7.40741 7.40741 7.40741 7.40741 7.40741 7.4074 7.40741 7.40741 3.7037 3.7037 7.40741 7.40741 7.40741 7.40741 7.40741 7.40741 7.40741 7.40741 7.40741 7.40741 7.40741 7.40741 7.40741 7.40741 7.40741 7.40741 7.40741 3.7037 1.85185 3.7037 3.7037 3.7037 3.7037 3.7037 3.7037 3.7037 3.7037 3.7037 3.7037 3.7037 3.7037 3.70371 3.7037 3.7037 3.70371 3.7037 1.85185 1.85185 3.7037 3.7037 3.7037 3.70371 3.7037 3.7037 3.70371 3.7037 3.7037 3.70371 3.7037 3.7037 3.70371 3.7037 3.7037 3.70371 3.7037 1.85185 3.7037 7.40741 7.40741 7.40741 7.40741 7.40741 7.40741 7.40741 7.40741 7.40741 7.40741 7.40741 7.40741 7.40741 7.40741 7.40741 7.40741 7.40741 3.7037 3.7037 7.40741 7.40741 7.40741 7.40741 7.40741 7.40741 7.40741 7.40741 7.40741 7.40741 7.40741 7.40741 7.40741 7.40741 7.40741 7.40741 7.40741 3.7037 1.85185 3.7037 3.7037 3.7037 3.7037 3.7037 3.7037 3.70371 3.7037 3.7037 3.7037 3.7037 3.7037 3.70371 3.7037 3.7037 3.70371 3.7037 1.85185 1.85185 3.7037 3.7037 3.7037 3.7037 3.7037 3.7037 3.7037 3.7037 3.7037 3.7037 3.7037 3.7037 3.70371 3.7037 3.7037 3.70371 3.7037 1.85185 3.7037 7.40741 7.40741 7.40741 7.40741 7.40741 7.40741 7.40741 7.40741 7.40741 7.40741 7.40741 7.40741 7.40741 7.40741 7.4074 7.40741 7.40741 3.7037 3.7037 7.40741 7.40741 7.40741 7.40741 7.40741 7.40741 7.40741 7.40741 7.40741 7.40741 7.40741 7.40741 7.40741 7.40741 7.4074 7.40741 7.40741 3.7037 1.85185 3.7037 3.7037 3.7037 3.7037 3.7037 3.7037 3.7037 3.7037 3.7037 3.7037 3.7037 3.7037 3.70371 3.7037 3.7037 3.70371 3.7037 1.85185 1.85185 3.7037 3.70371 3.7037 3.70371 3.7037 3.70371 3.70371 3.7037 3.7037 3.70371 3.7037 3.7037 3.70371 3.7037 3.7037 3.70371 3.7037 1.85185 3.7037 7.40741 7.40741 7.40741 7.40741 7.40741 7.40741 7.40741 7.40741 7.40741 7.40741 7.40741 7.40741 7.40741 7.40741 7.40741 7.40741 7.40741 3.7037 3.70371 7.40741 7.40741 7.40741 7.40741 7.40741 7.40741 7.40741 7.40741 7.40741 7.40741 7.40741 7.40741 7.40741 7.40741 7.40741 7.40741 7.40741 3.7037 1.85185 3.7037 3.7037 3.7037 3.7037 3.7037 3.7037 3.7037 3.7037 3.7037 3.70371 3.7037 3.7037 3.70371 3.7037 3.7037 3.70371 3.7037 1.85185 1.85185 3.7037 3.7037 3.7037 3.7037 3.7037 3.70371 3.70371 3.7037 3.7037 3.7037 3.7037 3.7037 3.70371 3.7037 3.7037 3.70371 3.7037 1.85185 3.7037 7.40741 7.40741 7.40741 7.40741 7.40741 7.40741 7.40741 7.40741 7.40741 7.40741 7.40741 7.40741 7.40741 7.40741 7.4074 7.40741 7.40741 3.7037 3.7037 7.40741 7.40741 7.40741 7.40741 7.40741 7.40741 7.40741 7.40741 7.40741 7.40741 7.40741 7.40741 7.40741 7.40741 7.4074 7.40741 7.40741 3.7037 1.85185 3.7037 3.7037 3.7037 3.7037 3.7037 3.7037 3.70371 3.7037 3.7037 3.7037 3.7037 3.7037 3.70371 3.7037 3.7037 3.7037 3.7037 1.85185 0.925926 1.85185 1.85185 1.85185 1.85185 1.85185 1.85185 1.85185 1.85185 1.85185 1.85185 1.85185 1.85185 1.85185 1.85185 1.85185 1.85185 1.85185 0.925925 1.85185 3.7037 3.7037 3.7037 3.7037 3.7037 3.7037 3.7037 3.7037 3.7037 3.7037 3.7037 3.7037 3.7037 3.7037 3.7037 3.7037 3.7037 1.85185 1.85185 3.7037 3.7037 3.7037 3.7037 3.7037 3.7037 3.7037 3.7037 3.7037 3.7037 3.7037 3.7037 3.7037 3.7037 3.7037 3.7037 3.7037 1.85185 0.925926 1.85185 1.85185 1.85185 1.85185 1.85185 1.85185 1.85185 1.85185 1.85185 1.85185 1.85185 1.85185 1.85185 1.85185 1.85185 1.85185 1.85185 0.925925 1.85185 1.85185 1.85185 1.85185 1.85185 1.85185 1.85185 1.85185 1.85185 1.85185 1.85185 1.85185 1.85185 1.85185 1.85185 1.85185 1.85185 1.85185 1.85185 1.85185 1.85185 1.85185 1.85185 1.85185 1.85185 1.85185 1.85185 1.85185 1.85185 1.85185 1.85185 1.85185 1.85185 1.85185 1.85185 1.85185 1.85185 1.85185 1.85185 1.85185 1.85185 1.85185 1.85185 1.85185 1.85185 1.85185 1.85185 1.85185 1.85185 1.85185 1.85185 1.85185 1.85185 1.85185 1.85185 1.85185 1.85185 1.85185 1.85185 1.85185 1.85185 1.85185 1.85185 1.85185 1.85185 1.85185 1.85185 1.85185 1.85185 1.85185 1.85185 1.85185 1.85185 1.85185 1.85185 1.85185 1.85185 1.85185 1.85185 1.85185 1.85185 1.85185 1.85185 1.85185 1.85185 1.85185 1.85185 1.85185 1.85185 1.85185 1.85185 1.85185 1.85185 1.85185 1.85185 1.85185 1.85185 1.85185 1.85185 1.85185 1.85185 1.85185 1.85185 1.85185 1.85185 1.85185 1.85185 1.85185 1.85185 1.85185 1.85185 1.85185 1.85185 1.85185 1.85185 1.85185 1.85185 1.85185 1.85185 1.85185 1.85185 1.85185 1.85185 1.85185 1.85185 1.85185 1.85185 1.85185 1.85185 1.85185 1.85185 1.85185 1.85185 1.85185 1.85185 1.85185 1.85185 1.85185 1.85185 1.85185 1.85185 1.85185 1.85185 1.85185 1.85185 1.85185 1.85185 1.85185 1.85185 1.85185 1.85185 1.85185 1.85185 1.85185 1.85185 1.85185 1.85185 1.85185 1.85185 1.85185 1.85185 1.85185 1.85185 1.85185 1.85185 1.85185 1.85185 1.85185 1.85185 1.85185 1.85185 1.85185 1.85185 1.85185 1.85185 1.85185 1.85185 1.85185 1.85185 1.85185 1.85185 1.85185 1.85185 1.85185 1.85185 1.85185 1.85185 1.85185 1.85185 1.85185 1.85185 1.85185 1.85185 1.85185 1.85185 1.85185 1.85185 1.85185 1.85185 1.85185 1.85185 1.85185 1.85185 1.85185 1.85185 1.85185 1.85185 1.85185 1.85185 1.85185 1.85185 1.85185 1.85185 1.85185 1.85185 1.85185 1.85185 1.85185 1.85185 1.85185 1.85185 1.85185 1.85185 1.85185 1.85185 1.85185 1.85185 1.85185 1.85185 1.85185 1.85185 1.85185 1.85185 1.85185 1.85185 1.85185 1.85185 1.85185 1.85185 1.85185 1.85185 1.85185 1.85185 1.85185 1.85185 1.85185 1.85185 1.85185 1.85185 1.85185 1.85185 1.85185 1.85185 1.85185 1.85185 1.85185 1.85185 1.85185 1.85185 1.85185 1.85185 1.85185 1.85185 1.85185 1.85185 1.85185 1.85185 1.85185 1.85185 1.85185 1.85185 1.85185 1.85185 1.85185 1.85185 1.85185 1.85185 1.85185 1.85185 1.85185 1.85185 1.85185 1.85185 1.85185 1.85185 1.85185 1.85185 1.85185 1.85185 1.85185 1.85185 1.85185 1.85185 1.85185 1.85185 1.85185 1.85185 1.85185 1.85185 1.85185 1.85185 1.85185 1.85185 1.85185 1.85185 1.85185 1.85185 1.85185 1.85185 1.85185 1.85185 1.85185 1.85185 1.85185 1.85185 1.85185 1.85185 1.85185 1.85185 1.85185 1.85185 1.85185 1.85185 1.85185 
VECTORS u float
0 -2.38419e-07 1  -0.00157395 -0.0773705 0.900865  -0.00308132 -0.138792 0.790697  -0.00317413 -0.180844 0.67304  -0.00301898 -0.201187 0.550459  -0.00275248 -0.199494 0.426532  -0.00257868 -0.175988 0.305005  -0.00252533 -0.131568 0.189682  -0.00258017 -0.0676096 0.0839823  -0.00275052 0.0138 -0.00890529  -0.00308454 0.110147 -0.0860819  -0.00359416 0.2185 -0.145226  -0.0043354 0.335371 -0.184539  -0.00538278 0.457061 -0.20293  -0.00678897 0.579972 -0.200032  -0.00817561 0.700273 -0.176144  -0.00892329 0.813627 -0.132823  -0.00562334 0.915744 -0.0711305  0 1 -3.27826e-07  0 -0.333334 0.666667  -0.00866728 -0.358243 0.579118  -0.0134854 -0.365996 0.488853  -0.015194 -0.357472 0.397194  -0.0159454 -0.332265 0.307691  -0.0162624 -0.291348 0.223525  -0.016466 -0.236122 0.14764  -0.0166487 -0.168381 0.082554  -0.0168008 -0.090257 0.0303691  -0.0169302 -0.00421992 -0.00735911  -0.0170274 0.0871139 -0.0294337  -0.017117 0.180946 -0.0351663  -0.0171068 0.274298 -0.0243689  -0.0169218 0.364304 0.00261238  -0.0163662 0.448158 0.0450029  -0.0150487 0.523119 0.101275  -0.0123365 0.586337 0.169701  -0.00713277 0.634914 0.246737  0 0.666667 0.333333  0 -0.666667 0.333333  0.00715561 -0.634805 0.247017  0.0124164 -0.586221 0.169982  0.0150805 -0.522971 0.101591  0.0163587 -0.448023 0.0452879  0.0168604 -0.36412 0.00288576  0.0169761 -0.274028 -0.0242038  0.0169356 -0.180649 -0.0350562  0.0168582 -0.0868363 -0.0293773  0.0167661 0.0045349 -0.00736708  0.0166273 0.0906183 0.0302924  0.016502 0.168722 0.0824732  0.0163844 0.236417 0.147514  0.0162704 0.291609 0.223341  0.0159771 0.332417 0.307489  0.015238 0.357628 0.396986  0.0135005 0.366146 0.488672  0.00861526 0.358398 0.579154  0 0.333334 0.666667  0 -1 -3.27826e-07  0.00563295 -0.915526 -0.0710884  0.00863633 -0.813424 -0.13257  0.00775701 -0.700069 -0.175885  0.00628942 -0.579855 -0.199782  0.00482237 -0.456926 -0.20274  0.00370395 -0.335079 -0.184434  0.00294209 -0.218184 -0.145151  0.00246227 -0.109854 -0.0860001  0.00218284 -0.0134174 -0.00884695  0.00204647 0.0680537 0.0839944  0.00201392 0.131955 0.189756  0.00213766 0.176322 0.305129  0.00238395 0.199698 0.426557  0.00269103 0.201283 0.550417  0.00290155 0.180878 0.672993  0.00283933 0.138779 0.790792  0.00160623 0.0771247 0.900884  0 2.38419e-07 1  0 0.166666 0.833334  0.00983328 0.0848479 0.759882  0.015545 0.0138301 0.677786  0.017813 -0.0399215 0.585759  0.0189753 -0.0763107 0.486473  0.0195723 -0.0944431 0.382799  0.0198947 -0.0940352 0.277778  0.0200155 -0.075222 0.174652  0.0200189 -0.0386257 0.0764672  0.0199376 0.0145585 -0.013782  0.0197452 0.0826103 -0.093269  0.0193994 0.163454 -0.159633  0.0188129 0.254474 -0.210806  0.0179129 0.352803 -0.245326  0.016475 0.45531 -0.26236  0.0142193 0.558806 -0.261754  0.0108945 0.659436 -0.244144  0.00620341 0.754158 -0.211219  0 0.833333 -0.166667  0 -0.166667 0.5  -0.00131837 -0.191096 0.440519  -0.00245085 -0.206034 0.376432  -0.00331214 -0.208789 0.311015  -0.00380588 -0.199661 0.24586  -0.00408411 -0.178998 0.183163  -0.00426269 -0.147538 0.124947  -0.00441039 -0.10634 0.0731279  -0.0045439 -0.0566784 0.0293378  -0.00462186 -9.11653e-05 -0.00509068  -0.00468051 0.0616617 -0.0290342  -0.00472212 0.126626 -0.0418048  -0.00469625 0.192787 -0.0429933  -0.00461602 0.258155 -0.0325567  -0.00437284 0.320554 -0.0109145  -0.00396681 0.378164 0.0211947  -0.00323629 0.428849 0.0627508  -0.00226235 0.470798 0.111931  0 0.5 0.166667  0 -0.5 0.166666  0.00229625 -0.470739 0.112099  0.0032908 -0.428702 0.0629193  0.00401503 -0.377978 0.0213567  0.00440717 -0.320341 -0.0107669  0.00461727 -0.257807 -0.0324325  0.00468755 -0.192422 -0.042893  0.00469077 -0.126237 -0.0417611  0.00467634 -0.061273 -0.0290514  0.00461471 0.000502825 -0.0051523  0.00449562 0.0571286 0.0292041  0.00438917 0.106787 0.0729592  0.004282 0.147985 0.12475  0.00412989 0.17942 0.182944  0.00389671 0.199941 0.245641  0.00342298 0.209028 0.310814  0.0025661 0.206248 0.376257  0.0013814 0.191252 0.440499  0 0.166667 0.5  0 -0.833333 -0.166667  -0.00629227 -0.753969 -0.211215  -0.0110905 -0.659282 -0.243967  -0.0145171 -0.558637 -0.261624  -0.0168285 -0.455215 -0.262272  -0.0183234 -0.352636 -0.245274  -0.0192788 -0.254229 -0.210814  -0.0198463 -0.163195 -0.159674  -0.0201653 -0.0823184 -0.0933447  -0.0203418 -0.0141349 -0.0138769  -0.0204109 0.0391064 0.0763308  -0.0203702 0.0756168 0.17453  -0.0201987 0.0944368 0.27768  -0.0198438 0.0947831 0.382665  -0.0192099 0.0765692 0.486293  -0.0179875 0.0401279 0.585542  -0.0156245 -0.0136895 0.677646  -0.0097003 -0.0848086 0.75974  0 -0.166666 0.833334  0 0.333333 0.666667  0.00520051 0.24744 0.624722  0.0108398 0.171528 0.572326  0.0136102 0.105469 0.507469  0.0150095 0.0519926 0.432574  0.0157551 0.0124181 0.349687  0.0161136 -0.0120237 0.261394  0.0162786 -0.0206752 0.170317  0.0163541 -0.0132863 0.0791858  0.0163516 0.00990703 -0.00924268  0.0163057 0.0481331 -0.0921951  0.0161768 0.100196 -0.167182  0.0159125 0.164463 -0.231855  0.0154619 0.238787 -0.284308  0.0146387 0.320813 -0.32305  0.0131516 0.407646 -0.347231  0.0103462 0.496229 -0.35667  0.00509453 0.58268 -0.352866  0 0.666667 -0.333334  0 -8.9407e-08 0.333333  -0.000642598 -0.0269125 0.302166  5.17666e-05 -0.0472206 0.265311  8.7738e-05 -0.0613928 0.22598  5.99623e-05 -0.0683734 0.185016  2.06828e-05 -0.0680053 0.143455  -6.31809e-06 -0.0603372 0.102641  -4.35114e-05 -0.045664 0.0638222  -9.53674e-05 -0.0244349 0.0282032  -0.000137925 0.00267464 -0.00314832  -0.000181556 0.0348838 -0.0292149  -0.000215292 0.071101 -0.0492606  -0.000197172 0.110289 -0.0626307  -0.000150442 0.151111 -0.068976  -4.26769e-05 0.192351 -0.0681185  7.00951e-05 0.232629 -0.0602228  -7.86781e-05 0.270547 -0.0455455  -0.000666857 0.304571 -0.0244507  0 0.333333 -1.49012e-07  0 -0.333333 -1.49012e-07  0.000730008 -0.304491 -0.0244044  0.000141263 -0.270408 -0.0454784  2.2471e-05 -0.232411 -0.0601637  9.26852e-05 -0.192079 -0.0680718  0.000174165 -0.150697 -0.0689293  0.000238419 -0.109823 -0.0625969  0.000274062 -0.0706308 -0.0492668  0.00028336 -0.03439 -0.0292682  0.000263453 -0.0022068 -0.00321555  0.000212789 0.0249796 0.0280963  0.000144839 0.0461922 0.0636735  9.10759e-05 0.0608675 0.102473  7.70092e-05 0.0684631 0.143247  6.65188e-05 0.0686907 0.184821  2.36034e-05 0.0616706 0.225839  3.55244e-05 0.0474588 0.26522  0.000726223 0.0270788 0.302146  0 5.96046e-08 0.333333  0 -0.666667 -0.333334  -0.00517286 -0.58255 -0.352825  -0.0104704 -0.496013 -0.356562  -0.0133093 -0.407418 -0.347163  -0.0148312 -0.320587 -0.323009  -0.0156794 -0.238466 -0.284295  -0.0161346 -0.164106 -0.231875  -0.0163687 -0.0998018 -0.167254  -0.0164528 -0.047711 -0.0922788  -0.016492 -0.00939554 -0.00932845  -0.016497 0.0138633 0.0790574  -0.0164349 0.0212401 0.170211  -0.0162494 0.0125134 0.261277  -0.0158474 -0.0120166 0.349522  -0.0150745 -0.0516686 0.432353  -0.0136521 -0.105165 0.507281  -0.0108397 -0.171272 0.572163  -0.00515342 -0.247283 0.62465  0 -0.333333 0.666667  0 0.5 0.5  -0.000456199 0.413231 0.48976  -0.000966966 0.332412 0.465891  -0.000692844 0.255446 0.428869  -0.000461161 0.185143 0.379194  -0.000280619 0.124197 0.318161  -0.000191987 0.0745798 0.247524  -0.000171423 0.0379775 0.169329  -0.000162601 0.0155301 0.0859622  -0.000133038 0.00797493 -8.63373e-05  -9.29832e-05 0.0155219 -0.0861194  -5.01871e-05 0.0379612 -0.169524  5.24521e-06 0.0745397 -0.247717  0.000101566 0.124115 -0.318358  0.000255823 0.185072 -0.379257  0.000445366 0.255376 -0.428897  0.000743628 0.332356 -0.465909  0.000252485 0.41319 -0.489823  0 0.5 -0.5  0 0.166667 0.166667  -8.29548e-05 0.138364 0.163022  -0.000294566 0.111401 0.155245  -0.000197589 0.0857262 0.142756  -7.7486e-05 0.0622461 0.126184  2.0802e-05 0.0419884 0.105796  7.53403e-05 0.0254881 0.0822558  0.000108719 0.0133139 0.0562196  0.000113845 0.00584674 0.0284761  9.98974e-05 0.00328609 -0.000130326  6.93798e-05 0.00580019 -0.028713  4.45843e-05 0.0132683 -0.0564206  3.09944e-06 0.0254394 -0.0824143  1.3113e-05 0.0419202 -0.105928  6.58035e-05 0.0622261 -0.126229  0.000150919 0.0857099 -0.142826  0.000233173 0.111372 -0.155292  9.29832e-06 0.138303 -0.163075  0 0.166667 -0.166667  0 -0.166667 -0.166667  -4.56274e-05 -0.138239 -0.163064  -0.000255644 -0.111248 -0.155288  -0.000166535 -0.0855185 -0.142816  -8.83937e-05 -0.0619569 -0.126242  4.52995e-06 -0.0414761 -0.105975  7.78437e-05 -0.0248935 -0.0824836  0.000123382 -0.0127077 -0.0565051  0.000161648 -0.0052281 -0.0287981  0.000155449 -0.00275016 -0.000193357  0.000133276 -0.00524366 0.0284154  0.00010407 -0.0127022 0.0561553  7.39098e-05 -0.0248542 0.0822044  8.03471e-05 -0.0414676 0.105699  0.000126362 -0.061845 0.126093  0.000204802 -0.085431 0.142654  0.000306368 -0.11113 0.155191  8.29697e-05 -0.138182 0.163002  0 -0.166667 0.166667  0 -0.5 -0.5  -0.00032261 -0.413066 -0.489752  -0.000823528 -0.332155 -0.465807  -0.000565439 -0.255142 -0.428834  -0.000366986 -0.184792 -0.379219  -0.000189066 -0.123729 -0.318322  -4.95315e-05 -0.0740677 -0.247762  6.25849e-05 -0.0374504 -0.169606  0.000131369 -0.0149778 -0.0862068  0.00016439 -0.0073787 -0.000165135  0.000158072 -0.0149284 0.0858257  0.000180602 -0.0373838 0.169232  0.000247002 -0.0740116 0.247446  0.00033164 -0.123689 0.318079  0.000441551 -0.184703 0.379062  0.000674009 -0.255095 0.428692  0.000963211 -0.332078 0.465758  0.00048995 -0.413027 0.489676  0 -0.5 0.5  0 0.666667 0.333334  -0.00523792 0.582714 0.352765  -0.0105044 0.496243 0.35663  -0.0132992 0.407694 0.347159  -0.0147632 0.320893 0.322971  -0.0155538 0.238917 0.284106  -0.0160071 0.164566 0.231619  -0.016277 0.100261 0.166951  -0.016474 0.0481932 0.0920284  -0.0165695 0.00995381 0.00905794  -0.016577 -0.0132379 -0.0793451  -0.0165092 -0.020614 -0.170491  -0.0163243 -0.0119789 -0.261573  -0.0159686 0.0124587 -0.349819  -0.0152321 0.051999 -0.432589  -0.013798 0.105438 -0.507499  -0.0110061 0.171531 -0.572357  -0.00528574 0.247426 -0.624815  0 0.333333 -0.666667  0 0.333333 5.96046e-08  0.00066106 0.304622 0.0243594  9.13441e-05 0.270546 0.0454544  -2.29478e-05 0.232618 0.0601059  7.61747e-05 0.19235 0.0680268  0.000191748 0.151203 0.0687684  0.000280261 0.11037 0.0623863  0.000313401 0.0712043 0.0489905  0.000274897 0.0349674 0.0289755  0.000217319 0.00274882 0.00291407  0.000164747 -0.0243895 -0.0283768  0.000100732 -0.0456167 -0.0639242  4.74453e-05 -0.0603299 -0.102699  -7.15256e-07 -0.0679895 -0.143477  -3.38554e-05 -0.0683389 -0.184993  -5.26905e-05 -0.0613745 -0.225992  -3.45707e-05 -0.0472185 -0.265307  0.000633478 -0.026966 -0.302209  0 -1.49012e-07 -0.333333  0 1.19209e-07 -0.333333  -0.000649706 0.0270496 -0.302245  6.22869e-05 0.0473605 -0.265343  8.82745e-05 0.0616226 -0.226029  3.95775e-05 0.0686631 -0.185062  8.9407e-07 0.0684927 -0.143622  -2.563e-06 0.0609157 -0.102882  8.10623e-06 0.0462564 -0.0641155  -2.08616e-05 0.0250391 -0.0285166  -8.08239e-05 -0.00213104 0.00282186  -0.00013113 -0.0342856 0.028914  -0.000157356 -0.0705007 0.0489866  -0.000137329 -0.109716 0.0624039  -9.87053e-05 -0.150599 0.0688057  -5.96046e-06 -0.191907 0.0680264  7.86781e-05 -0.232277 0.0600843  -8.82149e-06 -0.270304 0.0454335  -0.00061965 -0.304452 0.0244349  0 -0.333333 5.96046e-08  0 -0.333333 -0.666667  0.00535868 -0.247284 -0.624701  0.0110364 -0.171252 -0.572263  0.0137993 -0.105151 -0.50741  0.0152094 -0.0516382 -0.43257  0.0159557 -0.011955 -0.349842  0.0163742 0.012496 -0.261645  0.0166157 0.0211767 -0.170596  0.0167259 0.0138465 -0.0794455  0.0167263 -0.00933176 0.00897455  0.0166414 -0.0475675 0.0919182  0.0164807 -0.099633 0.166907  0.0162237 -0.163987 0.23161  0.015738 -0.238378 0.284133  0.0149143 -0.320491 0.322938  0.0134313 -0.407332 0.347069  0.0105834 -0.495917 0.35654  0.00527287 -0.582515 0.352768  0 -0.666667 0.333334  0 0.833334 0.166667  -0.0063384 0.754128 0.21117  -0.0109572 0.659461 0.244056  -0.0143153 0.558833 0.261651  -0.0165471 0.455475 0.262244  -0.0179498 0.352965 0.245133  -0.018853 0.254607 0.210563  -0.0194418 0.16354 0.15939  -0.0198199 0.0827044 0.0931024  -0.0200782 0.0146334 0.0136045  -0.0202076 -0.0385735 -0.0766301  -0.0201924 -0.075135 -0.174858  -0.0200739 -0.0939564 -0.278012  -0.019737 -0.0943444 -0.382979  -0.019151 -0.0762674 -0.486583  -0.0180249 -0.0399206 -0.585762  -0.0157471 0.0138147 -0.677793  -0.0100009 0.0848864 -0.759894  0 0.166666 -0.833334  0 0.5 -0.166667  0.00223927 0.470807 -0.111999  0.00323144 0.428866 -0.0629186  0.00397563 0.378166 -0.0213956  0.00441062 0.320624 0.010699  0.00467879 0.258231 0.0322955  0.00481021 0.192922 0.0426691  0.00482869 0.126746 0.0414991  0.00477207 0.061794 0.0288094  0.00466037 6.57141e-05 0.0048756  0.00453699 -0.0565794 -0.0294771  0.00439429 -0.106242 -0.0731967  0.00425911 -0.14747 -0.124969  0.00409794 -0.178899 -0.183136  0.00381994 -0.199568 -0.245783  0.0032866 -0.20874 -0.310966  0.00237966 -0.206033 -0.376354  0.00120568 -0.191138 -0.440526  0 -0.166667 -0.5  0 0.166667 -0.5  -0.00131422 0.191209 -0.44061  -0.00250143 0.206194 -0.376448  -0.00335869 0.209015 -0.311074  -0.00384015 0.199995 -0.245937  -0.00409722 0.179468 -0.183305  -0.0042246 0.148088 -0.125205  -0.0042851 0.106877 -0.0734201  -0.00436652 0.0572367 -0.0296144  -0.00447083 0.000674009 0.00480109  -0.0045774 -0.0610772 0.0287639  -0.00465679 -0.126025 0.0415395  -0.004691 -0.192231 0.