# vtk DataFile Version 5.1
vtk output
ASCII

DATASET UNSTRUCTURED_GRID
POINTS 3925 float
0 0 0
0.166667 0 0
0.333333 0 0
0.5 0 0
0.666667 0 0
0.833333 0 0
1 0 0
0.142532 0.180471 -0.0848608
0.286296 0.140318 -0.0573219
0.459425 0.144249 -0.0241593
0.63258 0.163876 0.0177572
0.795126 0.187147 0.0650803
0.945381 0.202335 0.111877
1.08272 0.186192 0.139467
0.315593 0.339006 -0.157178
0.437423 0.296891 -0.0892305
0.59097 0.302345 -0.0161374
0.748259 0.331612 0.0674842
0.897414 0.36435 0.158364
1.03499 0.37811 0.249232
1.15626 0.340774 0.315888
0.499371 0.499949 -0.181929
0.596676 0.45838 -0.083477
0.722354 0.466782 0.0263065
0.851547 0.499869 0.147923
0.973581 0.533377 0.277128
1.08338 0.541637 0.403244
1.18122 0.50013 0.500019
0.684142 0.659746 -0.15658
0.750066 0.622076 -0.0347716
0.840697 0.635658 0.102586
0.931875 0.6684 0.251564
1.01598 0.697616 0.408703
1.08915 0.702506 0.562696
1.15615 0.659361 0.683983
0.862735 0.812109 -0.0809348
0.887898 0.797354 0.0537463
0.935531 0.814428 0.205415
0.981896 0.837039 0.36794
1.02322 0.854294 0.540683
1.05728 0.855718 0.71321
1.08292 0.813774 0.860577
1 1 -1.49012e-07
1 1 0.166667
1 1 0.333333
1 1 0.5
1 1 0.666667
1 1 0.833333
1 1 1
0 0 0.166667
0.166667 0 0.166667
0.333333 0 0.166667
0.5 0 0.166667
0.666667 0 0.166667
0.833333 0 0.166667
1 0 0.166667
0.111957 0.203424 0.0525756
0.258662 0.170235 0.0947902
0.420539 0.163314 0.137041
0.585819 0.164624 0.17912
0.747715 0.168998 0.219937
0.905297 0.169486 0.258088
1.05729 0.144301 0.286887
0.248955 0.377159 -0.0355444
0.374107 0.335104 0.0452796
0.515884 0.326788 0.12909
0.66377 0.33172 0.214074
0.811478 0.338749 0.297071
0.954821 0.335475 0.374262
1.08924 0.297421 0.437472
0.402341 0.541203 -0.0832375
0.499557 0.499925 0.0288044
0.612085 0.493008 0.146528
0.731945 0.499913 0.267397
0.853263 0.506842 0.386974
0.971348 0.500055 0.499922
1.08348 0.458206 0.596584
0.561891 0.702742 -0.0892319
0.624797 0.664647 0.0460394
0.702256 0.661074 0.188406
0.78534 0.667832 0.335376
0.870774 0.672812 0.483327
0.954661 0.664621 0.625977
1.03492 0.621966 0.750947
0.713358 0.855652 -0.0568646
0.741061 0.830355 0.0947181
0.779207 0.830361 0.251647
0.820444 0.834752 0.413629
0.862909 0.836345 0.579032
0.905331 0.830677 0.741959
0.945573 0.797506 0.887958
0.833333 1 -1.49012e-07
0.833333 1 0.166667
0.833333 1 0.333333
0.833333 1 0.5
0.833333 1 0.666667
0.833333 1 0.833333
0.833333 1 1
0 0 0.333333
0.166667 0 0.333333
0.333333 0 0.333333
0.5 0 0.333333
0.666667 0 0.333333
0.833333 0 0.333333
1 0 0.333333
0.0639528 0.18727 0.204475
0.220664 0.169994 0.251223
0.380666 0.166152 0.296569
0.542423 0.165552 0.339436
0.703382 0.166014 0.380908
0.863025 0.163669 0.420863
1.02329 0.145658 0.459434
0.15801 0.364566 0.102003
0.297163 0.338997 0.187861
0.438076 0.332523 0.272879
0.582193 0.332252 0.356522
0.726881 0.332535 0.438193
0.870969 0.327122 0.516698
1.01605 0.302371 0.591297
0.276644 0.533221 0.0260787
0.387172 0.506865 0.146272
0.499706 0.500167 0.264958
0.616242 0.500013 0.383261
0.73466 0.499998 0.499853
0.853301 0.493041 0.612804
0.973597 0.466669 0.722969
0.407979 0.697617 -0.0162285
0.483221 0.673039 0.12931
0.561622 0.667477 0.272991
0.643174 0.66759 0.417745
0.727016 0.667301 0.561823
0.811455 0.661097 0.702972
0.897524 0.635623 0.841563
0.539618 0.854479 -0.0239547
0.578985 0.836748 0.137561
0.618694 0.834039 0.29671
0.660416 0.834402 0.457373
0.703082 0.833901 0.619412
0.747676 0.831133 0.780028
0.795038 0.812858 0.934777
0.666667 1 -2.08616e-07
0.666667 1 0.166667
0.666667 1 0.333333
0.666667 1 0.5
0.666667 1 0.666667
0.666667 1 0.833333
0.666667 1 1
0 0 0.5
0.166667 0 0.5
0.333333 0 0.5
0.5 0 0.5
0.666667 0 0.5
0.833333 0 0.5
1 0 0.5
0.0168461 0.16354 0.367785
0.180006 0.16559 0.413094
0.339437 0.165729 0.457358
0.499871 0.165637 0.500025
0.660398 0.165724 0.542727
0.82064 0.165396 0.586519
0.982013 0.162738 0.631969
0.0670803 0.331723 0.251712
0.214105 0.331955 0.335395
0.356393 0.33228 0.417506
0.499812 0.332234 0.499965
0.64317 0.332253 0.58226
0.785427 0.332118 0.664617
0.931966 0.33146 0.748339
0.147279 0.49999 0.148162
0.267327 0.499953 0.267399
0.382918 0.499954 0.383334
0.499686 0.50007 0.499938
0.616327 0.499855 0.616283
0.732052 0.499998 0.732607
0.851628 0.499946 0.85204
0.250986 0.668536 0.0678298
0.335409 0.668234 0.213987
0.417265 0.667807 0.356514
0.499729 0.667569 0.499918
0.582249 0.667668 0.643373
0.663842 0.668215 0.785876
0.748503 0.668135 0.932526
0.366722 0.836284 0.0172625
0.413483 0.835155 0.179577
0.456985 0.834425 0.339519
0.499872 0.834302 0.499992
0.542406 0.834549 0.660769
0.585766 0.835284 0.82092
0.632306 0.836146 0.982221
0.5 1 -2.08616e-07
0.5 1 0.166667
0.5 1 0.333333
0.5 1 0.5
0.5 1 0.666667
0.5 1 0.833333
0.5 1 1
0 0 0.666667
0.166667 0 0.666667
0.333333 0 0.666667
0.5 0 0.666667
0.666667 0 0.666667
0.833333 0 0.666667
1 0 0.666667
-0.0245368 0.143847 0.541064
0.137425 0.163768 0.578694
0.296597 0.165927 0.619197
0.457054 0.165613 0.660717
0.618827 0.166039 0.703288
0.779293 0.169743 0.748338
0.935541 0.185543 0.794706
-0.0166898 0.302368 0.408842
0.128896 0.327085 0.48338
0.27264 0.332655 0.561864
0.417313 0.332132 0.643212
0.561479 0.332584 0.726998
0.702399 0.33907 0.811762
0.841039 0.364101 0.897405
0.0255406 0.466947 0.277686
0.145949 0.49297 0.38727
0.264452 0.499977 0.499948
0.383003 0.499965 0.616562
0.499833 0.499873 0.734931
0.612059 0.50679 0.853337
0.722429 0.533074 0.973737
0.101664 0.635468 0.159091
0.187848 0.660957 0.29719
0.272664 0.667287 0.438248
0.356371 0.667651 0.582374
0.438041 0.667309 0.726926
0.51594 0.672836 0.870932
0.591178 0.697418 1.01596
0.204237 0.813183 0.0639558
0.251297 0.830539 0.220285
0.296585 0.834154 0.380869
0.339427 0.834187 0.54271
0.380767 0.833765 0.703354
0.420623 0.836473 0.863086
0.45939 0.855663 1.02439
0.333333 1 -2.08616e-07
0.333333 1 0.166666
0.333333 1 0.333333
0.333333 1 0.5
0.333333 1 0.666667
0.333333 1 0.833333
0.333333 1 1
0 0 0.833333
0.166667 0 0.833333
0.333333 0 0.833333
0.5 0 0.833333
0.666667 0 0.833333
0.833333 0 0.833333
1 0 0.833333
-0.0569466 0.141014 0.713472
0.0943666 0.169757 0.741679
0.251253 0.169415 0.779667
0.41344 0.164933 0.820602
0.579183 0.163095 0.862426
0.741279 0.169637 0.905361
0.888182 0.202419 0.946269
-0.0895502 0.296628 0.56229
0.0447782 0.335296 0.625454
0.187829 0.339143 0.703144
0.335581 0.331714 0.786189
0.483468 0.326886 0.870689
0.625065 0.335282 0.953892
0.750264 0.377844 1.03472
-0.0838943 0.458709 0.403289
0.027865 0.499947 0.499976
0.145985 0.506933 0.612616
0.267427 0.49989 0.7326
0.387289 0.493037 0.853536
0.499533 0.500029 0.971162
0.596561 0.541449 1.08355
-0.0360027 0.623211 0.250145
0.0448137 0.664577 0.374569
0.128913 0.673091 0.516695
0.214107 0.668086 0.664873
0.297264 0.660765 0.812137
0.374259 0.664667 0.954669
0.437525 0.702964 1.08921
0.0523045 0.797154 0.111782
0.0943526 0.830214 0.258477
0.137511 0.836166 0.421327
0.179992 0.834431 0.587181
0.220792 0.829942 0.748993
0.258775 0.829642 0.90528
0.286394 0.859781 1.05734
0.166667 1 -2.68221e-07
0.166666 1 0.166666
0.166666 1 0.333333
0.166666 1 0.5
0.166666 1 0.666667
0.166666 1 0.833333
0.166666 1 1
0 0 1
0.166667 0 1
0.333333 0 1
0.5 0 1
0.666667 0 1
0.833333 0 1
1 0 1
-0.0826298 0.179021 0.857799
0.0523511 0.202895 0.888222
0.204218 0.187077 0.936182
0.3668 0.163652 0.982864
0.539657 0.145516 1.02414
0.713378 0.144201 1.05695
0.862492 0.187979 1.081
-0.157514 0.338288 0.684061
-0.0359266 0.376731 0.750208
0.101737 0.364436 0.841083
0.250986 0.331663 0.932262
0.407964 0.30248 1.0166
0.561778 0.29736 1.08959
0.684087 0.340145 1.15658
-0.182443 0.499992 0.500127
-0.0838854 0.541411 0.59683
0.0256618 0.533065 0.722374
0.147271 0.500125 0.851899
0.276707 0.466723 0.973944
0.402534 0.458632 1.08313
0.499634 0.49985 1.18193
-0.157544 0.661663 0.316149
-0.0895 0.703394 0.437744
-0.0166134 0.697622 0.59121
0.0670663 0.668507 0.748349
0.158052 0.635538 0.898146
0.249033 0.62286 1.03541
0.315694 0.660818 1.15704
-0.0826965 0.820849 0.142355
-0.0570115 0.859071 0.286471
-0.0244641 0.856241 0.459058
0.0168729 0.836614 0.632409
0.0639701 0.812839 0.795556
0.112045 0.796504 0.947463
0.142572 0.819452 1.08486
-1.78814e-07 1 -2.68221e-07
-1.78814e-07 1 0.166666
-2.38419e-07 1 0.333333
-2.38419e-07 1 0.5
-2.38419e-07 1 0.666667
-2.98023e-07 1 0.833333
-2.98023e-07 1 1
0.133012 0.0871258 0.0417163
0.300197 0.0821478 0.0595561
0.471918 0.0818668 0.0789762
0.640838 0.0840452 0.0982504
0.802414 0.0869346 0.117107
0.957427 0.0872308 0.133865
0.269159 0.255778 -0.034867
0.416353 0.236529 0.0227881
0.577286 0.241328 0.0856776
0.73757 0.254914 0.150389
0.890877 0.266662 0.213985
1.0347 0.257102 0.269102
0.420972 0.418394 -0.0766595
0.543285 0.398383 0.0181471
0.680024 0.407003 0.12051
0.818977 0.425175 0.226468
0.952675 0.436571 0.329918
1.0763 0.419009 0.42131
0.578157 0.581098 -0.0765458
0.669466 0.563887 0.0474557
0.773353 0.575192 0.181197
0.879476 0.593247 0.319877
0.981924 0.60176 0.456317
1.07633 0.581017 0.578736
0.730991 0.743163 -0.0345259
0.785809 0.733991 0.109402
0.849338 0.745262 0.26241
0.914082 0.758284 0.422458
0.976927 0.762489 0.583213
1.03468 0.742993 0.73094
0.864602 0.911473 0.041718
0.882143 0.911945 0.198273
0.902329 0.915946 0.359606
0.921637 0.919038 0.528172
0.940507 0.919099 0.7
0.957516 0.91284 0.866227
0.116942 0.0863163 0.196761
0.281718 0.0832993 0.220938
0.449191 0.0825852 0.242675
0.615463 0.0828928 0.26282
0.778527 0.0832985 0.281712
0.940492 0.0809612 0.299929
0.213686 0.266713 0.108743
0.361647 0.250406 0.174316
0.516216 0.247808 0.238712
0.671924 0.249753 0.301609
0.825608 0.250225 0.361658
0.977052 0.237522 0.416753
0.329604 0.436157 0.0469584
0.452445 0.416682 0.149323
0.582936 0.414626 0.252394
0.716793 0.417695 0.354565
0.850283 0.416767 0.452778
0.981964 0.398333 0.543754
0.455733 0.601442 0.0178823
0.546702 0.583361 0.149427
0.645012 0.582398 0.282882
0.747329 0.585438 0.416671
0.850296 0.583223 0.547175
0.952725 0.563387 0.669928
0.582515 0.762687 0.0228477
0.637661 0.749895 0.174349
0.697903 0.750127 0.327907
[...]
POINT_DATA 3925
SCALARS Displacements float 1
LOOKUP_TABLE default
0 1.49012e-08 0 0 0 0 0 0.166455 0.135245 0.130328 0.133793 0.145454 0.162306 0.163323 0.352613 0.2874 0.259994 0.257274 0.281577 0.323709 0.352502 0.531479 0.440009 0.391321 0.3814 0.414862 0.476301 0.531844 0.701866 0.586133 0.518559 0.499803 0.538532 0.619155 0.701618 0.866783 0.724125 0.636549 0.606314 0.648001 0.747877 0.864784 1 0.849837 0.745356 0.707107 0.745356 0.849837 1 1.49012e-08 2.10734e-08 1.49012e-08 1.49012e-08 1.49012e-08 1.49012e-08 1.49012e-08 0.164019 0.1168 0.0921614 0.0867421 0.0970154 0.116382 0.135037 0.32371 0.240353 0.186493 0.170502 0.194949 0.240541 0.287383 0.475424 0.360308 0.279566 0.252873 0.288791 0.360704 0.439937 0.618472 0.47375 0.369605 0.331486 0.37679 0.475069 0.587027 0.747893 0.57889 0.453909 0.404569 0.45669 0.579786 0.724229 0.849837 0.666667 0.527046 0.471404 0.527046 0.666667 0.849837 0 1.49012e-08 0 0 0 0 0 0.145324 0.0983309 0.059935 0.0428745 0.0600988 0.0924771 0.129943 0.28188 0.195508 0.12094 0.0854083 0.120921 0.18729 0.26031 0.414778 0.289244 0.179875 0.126511 0.179867 0.280269 0.391949 0.538143 0.37666 0.23613 0.166208 0.236326 0.370328 0.519387 0.647526 0.456448 0.287703 0.202781 0.288388 0.454839 0.635738 0.745356 0.527046 0.333333 0.235702 0.333333 0.527046 0.745356 0 1.49012e-08 0 0 0 0 0 0.13332 0.0879303 0.0430868 0.00103774 0.0431947 0.087454 0.133247 0.257195 0.17131 0.0856629 0.00111591 0.0855571 0.17145 0.257496 0.38142 0.253448 0.126766 0.000328059 0.126712 0.2537 0.38203 0.499769 0.332084 0.166235 0.000945186 0.166383 0.332348 0.500331 0.606242 0.404466 0.202596 0.000977177 0.203197 0.405319 0.606418 0.707107 0.471405 0.235702 1.26441e-07 0.235702 0.471405 0.707107 0 1.49012e-08 0 0 0 0 0 0.129995 0.0927507 0.060029 0.0433693 0.0602507 0.0979797 0.144587 0.260213 0.187242 0.121111 0.0859572 0.121264 0.195523 0.281878 0.391217 0.280252 0.180388 0.127274 0.18026 0.289576 0.415249 0.518596 0.370127 0.236339 0.16654 0.236435 0.377493 0.538599 0.636694 0.454342 0.288152 0.202854 0.288245 0.457078 0.648631 0.745356 0.527046 0.333333 0.235702 0.333334 0.527047 0.745356 0 1.49012e-08 0 0 0 0 0 0.135158 0.11678 0.0981068 0.0875083 0.0922634 0.116922 0.162899 0.287804 0.240986 0.195332 0.171052 0.187079 0.240653 0.32389 0.440093 0.361099 0.289592 0.253451 0.280194 0.361136 0.476539 0.585913 0.474676 0.376947 0.331837 0.370057 0.474842 0.619004 0.724348 0.579395 0.456184 0.403729 0.453794 0.579057 0.748404 0.849837 0.666667 0.527047 0.471405 0.527047 0.666667 0.849837 0 1.49012e-08 0 0 0 0 0 0.164928 0.163935 0.145465 0.134331 0.131002 0.134675 0.161006 0.353062 0.324536 0.282593 0.258069 0.261064 0.288205 0.352653 0.532126 0.476485 0.41573 0.38256 0.392243 0.440694 0.532415 0.701782 0.618952 0.539009 0.500763 0.519646 0.587009 0.702118 0.861713 0.74821 0.64897 0.60708 0.636758 0.724137 0.86173 1 0.849837 0.745356 0.707107 0.745356 0.849837 1 0.0649179 0.0555564 0.0554423 0.0594123 0.0624567 0.065039 0.220309 0.17754 0.16087 0.168255 0.192857 0.22021 0.373632 0.300998 0.266144 0.27584 0.319808 0.373785 0.520016 0.421447 0.369958 0.379146 0.439596 0.5205 0.658329 0.536682 0.46829 0.473781 0.549119 0.658309 0.782394 0.642525 0.558744 0.558871 0.645428 0.783968 0.0630303 0.0430193 0.0333473 0.0345954 0.0426551 0.0553732 0.192937 0.134882 0.100211 0.102527 0.134848 0.177788 0.319773 0.226097 0.1663 0.169548 0.22622 0.301482 0.43919 0.313284 0.230702 0.233834 0.313643 0.421945 0.548582 0.394974 0.291828 0.293521 0.395663 0.536863 0.645354 0.469218 0.347562 0.347378 0.469027 0.643035 0.059092 0.0346261 0.0149061 0.0150339 0.0334068 0.0553601 0.168463 0.102739 0.0452392 0.0453045 0.100362 0.161109 0.275581 0.169653 0.0750021 0.0750305 0.166529 0.266174 0.378684 0.233659 0.103691 0.103954 0.231095 0.37012 0.473242 0.293173 0.130817 0.131053 0.292378 0.468532 0.55851 0.347343 0.155469 0.155532 0.347694 0.558015 0.0552271 0.0334436 0.01514 0.0152787 0.0346573 0.0589122 0.161328 0.100622 0.0455724 0.0456674 0.102899 0.168424 0.266231 0.166705 0.0755794 0.075605 0.169836 0.275713 0.369837 0.23101 0.104232 0.104385 0.234141 0.379119 0.468165 0.292045 0.131169 0.131259 0.29379 0.474098 0.557959 0.347499 0.155609 0.155729 0.347555 0.558425 0.0553914 0.0432623 0.0348237 0.0334444 0.0427327 0.0624604 0.178404 0.135417 0.103018 0.100838 0.135321 0.192638 0.301595 0.226671 0.170141 0.167043 0.226704 0.32006 0.421986 0.313719 0.234214 0.231455 0.314057 0.439803 0.537128 0.395252 0.293482 0.292343 0.395559 0.549578 0.641722 0.468959 0.347473 0.347693 0.469044 0.645154 0.0665718 0.0633757 0.0593363 0.0555749 0.0556018 0.0669114 0.220309 0.193162 0.168996 0.161732 0.178423 0.220012 0.373978 0.320337 0.27645 0.266895 0.301837 0.37427 0.520339 0.439765 0.379554 0.370619 0.422334 0.520832 0.658117 0.549004 0.474014 0.468659 0.53702 0.658146 0.782564 0.645695 0.558993 0.558592 0.643106 0.784703 7.45058e-09 0.0663645 0.0631723 0.0313885 0.0293325 0.0989076 0.144337 0.0828945 0.113593 0.0549766 1.666e-08 0.0648083 0.0943561 0.028998 0.0323935 0.0836893 0.135699 0.113421 1.666e-08 0.0591385 0.126539 7.45058e-09 1.05367e-08 0.168651 0.0864328 0.141862 0 0.0666122 0.0652357 0.0293285 0.0288789 0.0910269 0.131118 0.0932057 0.0455439 1.49012e-08 0.0490237 0.0772223 0.0251737 0.0263265 0.101774 0.083717 7.45058e-09 0.054582 0.11103 7.45058e-09 0.116141 0 0.0686882 0.0674901 0.0304006 0.031112 0.0916116 0.130583 0.0904558 0.0443751 1.49012e-08 0.0439542 0.0744818 0.0252176 0.024921 0.0872341 0.0746061 7.45058e-09 0.0568269 0.11058 7.45058e-09 0.109137 0 0.0752256 0.0716418 0.0330382 0.0331721 0.0977906 0.137788 0.0945241 0.048197 1.49012e-08 0.0461218 0.0803153 0.0268166 0.0263553 0.0906661 0.0766302 7.45058e-09 0.0604861 0.120324 7.45058e-09 0.114769 0 0.0848004 0.079049 0.033817 0.0332598 0.107475 0.15252 0.103071 0.0548387 1.49012e-08 0.051479 0.0889877 0.0281053 0.0275937 0.106554 0.0841375 7.45058e-09 0.0643624 0.13513 7.45058e-09 0.127846 0 0.0806066 0.0864972 0.0316725 0.0330808 0.112966 0.168164 0.113178 0.0632675 1.49012e-08 0.0600732 0.0986958 0.0279153 0.029202 0.126395 0.0944249 7.45058e-09 0.0642972 0.141597 7.45058e-09 0.141205 0.211319 0.228052 0.197235 0.173958 0.251056 0.3137 0.260569 0.283507 0.178519 0.207934 0.234459 0.164709 0.192399 0.244489 0.278181 0.271428 0.195048 0.264233 0.341851 0.256967 0.297735 0.194661 0.200895 0.160641 0.152409 0.215352 0.270446 0.229838 0.139168 0.155972 0.185918 0.13177 0.145997 0.209677 0.207067 0.166142 0.222784 0.239492 0.194997 0.192686 0.148428 0.148466 0.204992 0.255006 0.206986 0.12856 0.130248 0.167988 0.121406 0.124021 0.17315 0.172905 0.161799 0.214072 0.213915 0.213779 0.201783 0.152494 0.159493 0.219968 0.265897 0.209872 0.146201 0.13487 0.182071 0.131014 0.124412 0.178749 0.17141 0.179216 0.237423 0.222402 0.243837 0.227885 0.169663 0.180596 0.252673 0.301207 0.23558 0.178627 0.16169 0.216124 0.152481 0.141171 0.21646 0.197478 0.207566 0.277949 0.256571 0.258968 0.256867 0.191609 0.196541 0.282272 0.342322 0.270342 0.210728 0.195355 0.251301 0.173867 0.164779 0.264496 0.234402 0.226663 0.313134 0.297527 0.364536 0.396093 0.367195 0.327468 0.40321 0.479191 0.443129 0.449848 0.301009 0.347351 0.371302 0.303701 0.348228 0.400658 0.414089 0.423732 0.332758 0.40019 0.506342 0.425487 0.447957 0.326094 0.341637 0.298988 0.278353 0.341654 0.411111 0.368047 0.233219 0.262816 0.294176 0.240397 0.268435 0.314899 0.328551 0.278354 0.334523 0.361939 0.319871 0.318812 0.265871 0.262057 0.319063 0.381012 0.325145 0.211876 0.215867 0.261534 0.21499 0.222499 0.2581 0.271347 0.26545 0.316945 0.31888 0.349143 0.330302 0.267651 0.280964 0.340513 0.393177 0.324986 0.242469 0.222099 0.282565 0.232751 0.219286 0.264296 0.265816 0.294823 0.350726 0.328379 0.400744 0.373277 0.301045 0.324167 0.393098 0.44364 0.364852 0.301306 0.270407 0.339173 0.277998 0.25387 0.322433 0.307959 0.346929 0.414264 0.380435 0.443288 0.425964 0.34767 0.367458 0.449578 0.506951 0.42298 0.364473 0.33347 0.403901 0.32823 0.304195 0.400435 0.371296 0.396453 0.478925 0.447952 0.513998 0.557901 0.530052 0.47673 0.548634 0.63689 0.617841 0.608549 0.417693 0.479253 0.501159 0.43718 0.496692 0.548049 0.542024 0.568048 0.465586 0.529798 0.662655 0.585887 0.590384 0.456046 0.480031 0.435256 0.40363 0.46487 0.547227 0.501511 0.324935 0.365964 0.399357 0.347231 0.387646 0.415803 0.445181 0.388906 0.442991 0.480218 0.442068 0.44319 0.383109 0.375128 0.4301 0.50248 0.440675 0.292787 0.299751 0.352496 0.307516 0.320022 0.340285 0.36754 0.366671 0.415188 0.420507 0.478154 0.454179 0.380759 0.398698 0.45445 0.512444 0.435219 0.333811 0.30574 0.377364 0.330691 0.311946 0.344878 0.3561 0.404598 0.456099 0.427765 0.54847 0.510561 0.426714 0.460474 0.524881 0.575444 0.485896 0.418492 0.373478 0.455032 0.397574 0.361119 0.422052 0.41155 0.479174 0.542533 0.49557 0.618143 0.586485 0.496531 0.530633 0.608414 0.662603 0.567403 0.51443 0.466486 0.549999 0.477691 0.437836 0.530484 0.501466 0.5589 0.636993 0.590619 0.656875 0.712163 0.684664 0.618631 0.686207 0.788935 0.785462 0.759371 0.527099 0.602196 0.622993 0.563305 0.636819 0.684915 0.658965 0.702346 0.591726 0.651528 0.80893 0.737593 0.724336 0.57937 0.612246 0.565632 0.524309 0.581836 0.6742 0.628453 0.412575 0.463911 0.499386 0.45028 0.50124 0.509875 0.5554 0.494473 0.544315 0.591842 0.554869 0.559845 0.495573 0.482406 0.532867 0.6129 0.549401 0.368949 0.379666 0.43745 0.395752 0.413863 0.417058 0.458555 0.461092 0.504885 0.514539 0.595003 0.567484 0.486533 0.507255 0.556936 0.618299 0.535596 0.418015 0.38285 0.463142 0.421201 0.398592 0.418446 0.439125 0.504866 0.550391 0.5171 0.685284 0.636255 0.54228 0.586928 0.644462 0.692834 0.594952 0.528591 0.468515 0.560897 0.50909 0.460081 0.512713 0.505756 0.602511 0.658872 0.599509 0.784066 0.738011 0.636486 0.684841 0.758082 0.808485 0.701657 0.656535 0.591807 0.686839 0.619526 0.564197 0.652059 0.623174 0.71257 0.787282 0.723911 0.785087 0.850516 0.826227 0.749767 0.811334 0.920447 0.934373 0.890082 0.625498 0.711831 0.729375 0.678601 0.761302 0.804741 0.754616 0.815715 0.705265 0.754615 0.920447 0.868767 0.833333 0.690036 0.72938 0.687165 0.635842 0.687637 0.790569 0.743822 0.492598 0.553132 0.588164 0.545335 0.605696 0.589256 0.651762 0.590698 0.634648 0.687184 0.656824 0.663854 0.59985 0.580303 0.626824 0.71686 0.64859 0.438605 0.452693 0.514788 0.476586 0.500752 0.485913 0.540408 0.547227 0.589256 0.600925 0.698047 0.669052 0.58187 0.60361 0.647281 0.71686 0.627349 0.492993 0.452047 0.540442 0.502162 0.477518 0.485913 0.514938 0.593491 0.634648 0.600925 0.804596 0.746074 0.644055 0.699024 0.744127 0.790569 0.689626 0.627 0.552238 0.653574 0.609929 0.548761 0.589256 0.587992 0.711101 0.754615 0.687184 0.931505 0.872379 0.762028 0.825792 0.891325 0.920447 0.816536 0.782558 0.70753 0.814201 0.749323 0.679243 0.754616 0.728885 0.850083 0.920447 0.833333 0.0339934 0.0285717 0.0895713 0.109184 0.0487556 7.45058e-09 0.0613254 0.0846048 0.0280344 0.0338532 0.0750302 0.120448 0.103644 1.49012e-08 0.0516235 0.10684 0 7.45058e-09 0.153969 0.0793549 0.127824 0.0244475 0.0212826 0.0654977 0.0755028 0.0295977 0 0.0383496 0.0551712 0.0181658 0.0223039 0.0774349 0.0683507 0 0.0369131 0.0753299 0 0.0887136 0.0197242 0.0190338 0.0571221 0.0595709 0.0214063 0 0.0234525 0.0409262 0.0135696 0.0151047 0.0473425 0.0458024 0 0.0327204 0.0649616 0 0.0671039 0.0196269 0.0205483 0.0623001 0.0585616 0.0294473 0 0.0238528 0.0470794 0.015447 0.0139687 0.0481164 0.0416078 0 0.0380012 0.0773301 0 0.0689557 0.0219743 0.0239411 0.0754143 0.0679354 0.0452099 0 0.0369565 0.065428 0.021138 0.0180602 0.0754667 0.0551759 0 0.0493601 0.101872 0 0.0885926 0.0251886 0.0327196 0.0929338 0.0831115 0.0670613 0 0.0551223 0.0904007 0.0298661 0.0252447 0.110146 0.0766963 0 0.0657961 0.131485 0 0.115456 0.181605 0.152165 0.215316 0.253765 0.146618 0.179302 0.197575 0.140882 0.170139 0.213659 0.237282 0.235952 0.16137 0.216568 0.301967 0.228453 0.256892 0.129988 0.11166 0.157688 0.18382 0.09037 0.116567 0.131771 0.0935386 0.115935 0.155678 0.162566 0.113663 0.152333 0.181018 0.0996634 0.0943311 0.131084 0.139664 0.06415 0.0712221 0.094754 0.0679616 0.0770989 0.0950302 0.107979 0.0964081 0.128059 0.133576 0.0957866 0.103546 0.144548 0.133187 0.0904465 0.0720858 0.109778 0.0784123 0.0689541 0.0960481 0.0958394 0.116424 0.155616 0.136411 0.115172 0.129955 0.183703 0.162391 0.139607 0.113871 0.158341 0.11186 0.0938152 0.152561 0.131873 0.155625 0.209713 0.181049 0.145422 0.161597 0.230146 0.206909 0.194565 0.166199 0.215643 0.15272 0.131619 0.22267 0.185826 0.20106 0.271374 0.240083 0.324889 0.277647 0.338338 0.393706 0.242658 0.294812 0.307883 0.253435 0.301512 0.349097 0.350427 0.365073 0.269936 0.322376 0.443375 0.373563 0.380426 0.237371 0.203678 0.248708 0.289694 0.150551 0.193753 0.206734 0.169734 0.209331 0.231168 0.254444 0.190004 0.22749 0.27029 0.179657 0.167975 0.204288 0.219066 0.106044 0.1182 0.14769 0.121465 0.138925 0.141176 0.169023 0.159029 0.189821 0.198829 0.170428 0.185383 0.224996 0.206859 0.150658 0.119413 0.171338 0.140911 0.12288 0.142359 0.149014 0.193776 0.231219 0.202125 0.208851 0.23755 0.289729 0.254226 0.233894 0.190386 0.249483 0.204173 0.170001 0.227769 0.206892 0.262673 0.315187 0.270528 0.268101 0.300208 0.368649 0.328531 0.326162 0.278844 0.342332 0.279299 0.240703 0.334542 0.294179 0.342518 0.411969 0.362548 0.460701 0.396879 0.453704 0.525067 0.333576 0.404278 0.411009 0.360349 0.426773 0.477708 0.455414 0.485754 0.372477 0.42132 0.57499 0.510225 0.495221 0.340752 0.292964 0.336226 0.390113 0.208237 0.267276 0.278227 0.242944 0.298572 0.302208 0.340889 0.263864 0.299639 0.354891 0.258104 0.240246 0.275151 0.296108 0.146641 0.163689 0.198972 0.173624 0.198943 0.185668 0.227918 0.219845 0.248945 0.261775 0.242794 0.263967 0.30126 0.277375 0.208583 0.164995 0.230155 0.201151 0.175118 0.186736 0.200184 0.267659 0.302649 0.264288 0.298304 0.341158 0.390695 0.341154 0.325742 0.264447 0.337183 0.293689 0.243464 0.300156 0.278663 0.366154 0.416363 0.35553 0.387433 0.436672 0.502474 0.445474 0.456178 0.389304 0.465641 0.404578 0.347723 0.443146 0.399389 0.481158 0.548706 0.480943 0.586761 0.507982 0.559907 0.644551 0.41729 0.504006 0.504671 0.458904 0.541994 0.594616 0.549463 0.594463 0.467515 0.512107 0.692674 0.635195 0.597785 0.438142 0.378237 0.418532 0.483741 0.262429 0.335603 0.344641 0.31213 0.381818 0.367447 0.4207 0.333847 0.366731 0.433218 0.333324 0.309291 0.341854 0.368915 0.184958 0.20679 0.247018 0.223469 0.256225 0.226894 0.283162 0.277069 0.303791 0.320549 0.310814 0.337274 0.371216 0.342754 0.26307 0.207606 0.284347 0.257834 0.224463 0.227288 0.247513 0.336261 0.367872 0.321222 0.382041 0.439001 0.484331 0.421196 0.413419 0.334637 0.419594 0.379063 0.312915 0.3674 0.345328 0.46435 0.509991 0.433863 0.501534 0.567138 0.628418 0.555536 0.578378 0.494458 0.581612 0.524836 0.450608 0.544598 0.49918 0.612575 0.675372 0.591327 0.699293 0.608965 0.653464 0.744822 0.493046 0.59347 0.587877 0.548077 0.644306 0.699605 0.634648 0.690526 0.553323 0.589256 0.790569 0.745764 0.687184 0.527803 0.457196 0.491677 0.566203 0.311893 0.397668 0.404029 0.375719 0.457914 0.424918 0.491595 0.397559 0.424918 0.5 0.402803 0.372876 0.402421 0.434299 0.219859 0.246035 0.290354 0.269382 0.308925 0.263523 0.332722 0.329068 0.353553 0.372678 0.372783 0.403308 0.433985 0.402307 0.311863 0.246151 0.332546 0.309178 0.269456 0.263523 0.290284 0.397479 0.424918 0.372678 0.457607 0.527897 0.566494 0.491341 0.493011 0.39792 0.491759 0.457572 0.375979 0.424918 0.403886 0.552923 0.589256 0.5 0.606841 0.686631 0.745398 0.652457 0.688334 0.592367 0.688819 0.634923 0.545763 0.634648 0.588083 0.729982 0.790569 0.687184 0.0333553 0.0269104 0.0802704 0.0989556 0.0444318 7.45058e-09 0.0570788 0.0766919 0.0261207 0.0326557 0.0686737 0.110489 0.0946032 1.49012e-08 0.046122 0.0915539 0 7.45058e-09 0.138142 0.0714376 0.114545 0.0208483 0.0155652 0.0469419 0.0628446 0.0214466 0 0.0328652 0.041606 0.0139177 0.0196436 0.0654516 0.0587508 0 0.0239001 0.0481491 0 0.0691879 0.0111801 0.00830031 0.0251245 0.0336608 0.000644728 0 0.0107153 0.0111832 0.00375957 0.00846298 0.0215337 0.0254587 0 0.0105858 0.0213361 0 0.0301636 0.00846775 0.0110891 0.0337274 0.025455 0.0213695 0 0.010809 0.0254214 0.00834319 0.00384653 0.0216035 0.0112821 0 0.0234142 0.0476258 0 0.0302378 0.0150414 0.0197308 0.0595255 0.0457513 0.0439629 0 0.0328656 0.0573192 0.0191119 0.0137828 0.0651048 0.0408803 0 0.044155 0.0875896 0 0.067091 0.0243626 0.0331598 0.0902982 0.0741474 0.070216 0 0.0565784 0.0917345 0.0323252 0.0252106 0.109946 0.0735453 0 0.0681251 0.131275 0 0.108901 0.160029 0.130877 0.181826 0.220687 0.129543 0.162082 0.17166 0.124159 0.152849 0.195117 0.213689 0.210144 0.13502 0.17918 0.266583 0.202172 0.222023 0.103992 0.0783344 0.109584 0.144859 0.0644165 0.0968726 0.0959008 0.0689126 0.0966033 0.128365 0.133639 0.0720088 0.096063 0.136624 0.0565253 0.0420815 0.0588411 0.0791987 0.0012505 0.0321672 0.0262779 0.0187778 0.0425193 0.0428126 0.0593223 0.03194 0.0425659 0.0603576 0.0424107 0.0565854 0.0792195 0.0592106 0.0643512 0.0322225 0.0590453 0.0422434 0.0189637 0.0428262 0.0263467 0.0711986 0.0950316 0.0603029 0.0770308 0.099843 0.139892 0.107998 0.129326 0.0966583 0.131662 0.0946522 0.0681458 0.128372 0.0948877 0.130162 0.173629 0.133724 0.123533 0.149112 0.207495 0.172971 0.19472 0.161817 0.205621 0.148973 0.121092 0.213717 0.167853 0.1934 0.256063 0.214071 0.281357 0.232415 0.281958 0.340747 0.212444 0.26531 0.265614 0.218945 0.267908 0.319923 0.316387 0.324959 0.222068 0.264619 0.393369 0.330441 0.327778 0.185625 0.140833 0.171064 0.225109 0.106336 0.159321 0.149073 0.122868 0.170887 0.190004 0.207196 0.119348 0.142346 0.202136 0.101748 0.075442 0.0916429 0.12365 0.000693413 0.0531399 0.0409056 0.0336904 0.0760154 0.0633787 0.0922803 0.0528291 0.0630927 0.0895153 0.0758848 0.101752 0.123767 0.092159 0.106342 0.0532411 0.0919057 0.0756517 0.0338481 0.0635091 0.041029 0.118263 0.141338 0.0896273 0.138839 0.180014 0.219411 0.169199 0.212696 0.159414 0.204913 0.168512 0.121718 0.190158 0.147915 0.215866 0.258587 0.199192 0.222192 0.267142 0.325691 0.271393 0.319817 0.265514 0.319499 0.262673 0.214934 0.316706 0.261125 0.319652 0.382252 0.318831 0.398819 0.330073 0.376419 0.454181 0.293206 0.36638 0.355696 0.311458 0.380936 0.442044 0.414646 0.435056 0.305373 0.345027 0.512319 0.454011 0.427136 0.263951 0.200811 0.229578 0.30098 0.146752 0.219941 0.19998 0.174953 0.243015 0.249038 0.277567 0.164619 0.186436 0.264061 0.145329 0.107743 0.123419 0.166232 0.000650334 0.0733403 0.0551084 0.0480921 0.10826 0.0830676 0.123828 0.073135 0.0829338 0.117475 0.108308 0.145509 0.166634 0.123976 0.146958 0.0736231 0.123862 0.108116 0.0484155 0.0833255 0.0553543 0.163967 0.185942 0.117821 0.199108 0.258632 0.296612 0.228313 0.293662 0.22026 0.275874 0.240918 0.174078 0.24933 0.199228 0.300021 0.340723 0.26226 0.31998 0.384639 0.441201 0.367677 0.442104 0.366816 0.43044 0.375784 0.30765 0.415157 0.352167 0.443972 0.50374 0.420446 0.507051 0.420353 0.462266 0.556393 0.369078 0.460649 0.438268 0.398164 0.486575 0.554723 0.504423 0.535452 0.382416 0.41846 0.618729 0.566954 0.516306 0.336965 0.257242 0.283581 0.370709 0.184851 0.276989 0.247145 0.224204 0.310969 0.303546 0.342644 0.207124 0.226909 0.320821 0.186775 0.138701 0.153197 0.205966 0.00110675 0.092419 0.0684466 0.0619059 0.138926 0.101295 0.153284 0.0923548 0.101351 0.143414 0.139075 0.187045 0.206422 0.15351 0.185241 0.0927325 0.153676 0.139083 0.0622442 0.101655 0.0686579 0.207106 0.22731 0.143721 0.256599 0.333977 0.369495 0.283773 0.369786 0.277456 0.342633 0.30992 0.223991 0.304068 0.247274 0.379962 0.41755 0.320851 0.414065 0.497023 0.549101 0.458503 0.55487 0.461341 0.532961 0.483081 0.396062 0.504935 0.43711 0.560288 0.613803 0.514105 0.603744 0.502008 0.540566 0.647603 0.438754 0.546893 0.514163 0.477215 0.582218 0.65651 0.589256 0.628039 0.452963 0.485913 0.716861 0.669449 0.600925 0.403336 0.308952 0.332605 0.433933 0.219742 0.329081 0.290214 0.269337 0.37