# vtk DataFile Version 5.1
vtk output
ASCII

DATASET UNSTRUCTURED_GRID
POINTS 931 float
1 0 -1.19209e-06
1 0 0.166666
1 0 0.333333
1 0 0.5
1 0 0.666667
1 0 0.833334
1 0 1
0.92487 0.170907 -0.0604605
0.931414 0.17866 0.0906211
0.962715 0.173356 0.247463
0.994187 0.165883 0.411129
1.02288 0.159196 0.58172
1.04783 0.155562 0.75682
1.06047 0.170887 0.924877
0.8173 0.339911 -0.125352
0.854151 0.359451 0.0191857
0.912656 0.348503 0.172795
0.973056 0.331582 0.332269
1.0294 0.316619 0.497648
1.07939 0.311048 0.664979
1.12534 0.339918 0.817352
0.693566 0.504191 -0.173896
0.760605 0.531973 -0.0398661
0.847638 0.521342 0.103827
0.936955 0.498854 0.253208
1.02083 0.478206 0.407433
1.09694 0.471915 0.561005
1.1739 0.504187 0.693573
0.56823 0.668647 -0.197841
0.659658 0.699526 -0.0782671
0.772076 0.690799 0.0478001
0.887255 0.666304 0.180827
0.996762 0.642976 0.318766
1.09813 0.636541 0.454409
1.19782 0.668646 0.568178
0.44426 0.834461 -0.199166
0.555804 0.86589 -0.0976831
0.689011 0.858196 0.0066341
0.826049 0.83332 0.118384
0.957897 0.809162 0.235673
1.08111 0.802932 0.350476
1.19913 0.834472 0.444186
0.321243 1.00031 -0.178446
0.44917 1.03185 -0.0984055
0.59861 1.02488 -0.0193521
0.753325 1.00025 0.0666311
0.90388 0.975932 0.159054
1.04557 0.969437 0.250056
1.17841 1.00036 0.321205
0.204916 1.16666 -0.136562
0.344872 1.1979 -0.0799342
0.505736 1.19121 -0.0286191
0.673067 1.1669 0.0286943
0.837575 1.14269 0.0931754
0.993203 1.13601 0.157793
1.13653 1.16674 0.204863
0.0985424 1.33343 -0.0754662
0.246257 1.36429 -0.0439566
0.413578 1.35747 -0.0214703
0.588285 1.3333 0.00577042
0.761479 1.30926 0.0405515
0.926038 1.30265 0.0770661
1.07545 1.3335 0.0985022
0.00373784 1.49982 0.00391188
0.154635 1.53067 0.00900666
0.323228 1.5239 0.00189803
0.499927 1.49981 -0.00200458
0.676584 1.47579 0.00180966
0.845165 1.46905 0.00891037
0.996083 1.49987 0.00372214
-0.0756265 1.66621 0.0987522
0.0737716 1.69709 0.0771932
0.238381 1.69043 0.0406847
0.4116 1.66632 0.00578377
0.586236 1.64222 -0.0215216
0.753534 1.63543 -0.0440513
0.901239 1.66624 -0.0756528
-0.136687 1.83301 0.205108
0.00665064 1.86373 0.157945
0.162337 1.85702 0.0933166
0.326872 1.83272 0.0287249
0.494112 1.80852 -0.0286103
0.654939 1.80182 -0.0799884
0.794836 1.83302 -0.136713
-0.178544 1.99938 0.321425
-0.0456524 2.0303 0.250287
0.0960402 2.02378 0.159198
0.246592 1.99941 0.0666929
0.401277 1.97484 -0.0193039
0.550667 1.96788 -0.0984401
0.67851 1.99941 -0.178539
-0.199168 2.16522 0.444441
-0.0811648 2.19683 0.350684
0.0420787 2.19058 0.235843
0.173926 2.16637 0.11848
0.310912 2.14154 0.00672652
0.44402 2.13383 -0.0976831
0.555456 2.1653 -0.199188
-0.197745 2.3311 0.568423
-0.0981114 2.36325 0.45458
0.00327025 2.35678 0.318877
0.112715 2.33343 0.180871
0.22784 2.30896 0.0478668
0.340168 2.30023 -0.0781928
0.431448 2.33114 -0.197777
-0.173726 2.49565 0.693795
-0.0968421 2.52789 0.561121
-0.020803 2.52158 0.407497
0.0629611 2.50095 0.253237
0.152254 2.47846 0.103917
0.239233 2.46782 -0.0397568
0.306126 2.49565 -0.173749
-0.12507 2.66 0.817498
-0.0793324 2.68886 0.665043
-0.0293914 2.68323 0.497682
0.0268673 2.66829 0.332337
0.0872108 2.65134 0.17286
0.145705 2.64042 0.0193779
0.182381 2.65999 -0.125083
-0.0602043 2.82911 0.924973
-0.0477506 2.84436 0.756799
-0.0228188 2.84075 0.581722
0.00575461 2.83402 0.411151
0.0371274 2.8266 0.24757
0.0685196 2.82133 0.0908543
0.0749886 2.8291 -0.0602184
-1.13249e-06 3 1
-1.13249e-06 3 0.833334
-1.19209e-06 3 0.666667
-1.19209e-06 3 0.5
-1.19209e-06 3 0.333333
-1.2517e-06 3 0.166666
-1.2517e-06 3 -1.01328e-06
0.833334 0 -1.19209e-06
0.833334 0 0.166666
0.833334 0 0.333333
0.833334 0 0.5
0.833334 0 0.666667
0.833334 0 0.833334
0.833334 0 1
0.756783 0.155626 -0.0478027
0.773172 0.167625 0.117579
0.801299 0.168359 0.281578
0.829351 0.167399 0.44537
0.856404 0.166687 0.609682
0.88241 0.16758 0.773183
0.909332 0.178641 0.931439
0.66498 0.311097 -0.0794034
0.706168 0.335023 0.0756774
0.759591 0.337429 0.232656
0.815263 0.33416 0.390768
0.86993 0.33163 0.549573
0.924302 0.334981 0.706173
0.980766 0.35943 0.854189
0.561028 0.471992 -0.0969368
0.628294 0.501675 0.0454425
0.707704 0.505918 0.190348
0.790793 0.500735 0.336979
0.873118 0.496327 0.484231
0.954558 0.50162 0.628273
1.03983 0.531949 0.760617
0.454442 0.63661 -0.0981872
0.545215 0.667951 0.0296515
0.648981 0.673538 0.157773
0.757006 0.667346 0.287794
0.864373 0.661714 0.418468
0.970324 0.667904 0.545208
1.07824 0.699506 0.659674
0.350504 0.802952 -0.081206
0.462521 0.834422 0.0288391
0.587208 0.840432 0.136866
0.716347 0.833845 0.246421
0.844845 0.827729 0.356552
0.971108 0.834381 0.462525
1.09766 0.865867 0.555815
0.250116 0.969445 -0.0456378
0.380054 1.00069 0.0427422
0.521823 1.00696 0.127148
0.668305 1.00038 0.212282
0.81426 0.994083 0.298059
0.957233 1.00066 0.380048
1.09839 1.03182 0.449194
0.157808 1.13603 0.00674036
0.301296 1.16697 0.0711318
0.455669 1.17335 0.129121
0.614822 1.16691 0.186998
0.773603 1.16056 0.245727
0.928832 1.16695 0.301301
1.07992 1.19789 0.344879
0.0770609 1.3027 0.0739116
0.229674 1.33348 0.112383
0.391837 1.33975 0.142559
0.55859 1.33339 0.17181
0.725142 1.32706 0.202021
0.887604 1.33348 0.229671
1.04395 1.36431 0.24628
0.00889625 1.46914 0.154797
0.165834 1.49992 0.165867
0.330726 1.50624 0.167165
0.499985 1.49995 0.166685
0.669252 1.49358 0.16714
0.834102 1.49993 0.16581
0.990981 1.53071 0.154635
-0.0440524 1.63554 0.246445
0.112367 1.66635 0.229697
0.274859 1.67278 0.202052
0.441388 1.66649 0.171815
0.608146 1.66006 0.142527
0.770246 1.66638 0.112314
0.922782 1.69713 0.0737538
-0.0799965 1.80194 0.345015
0.071137 1.83287 0.301321
0.226393 1.83931 0.245753
0.38518 1.83297 0.186981
0.544355 1.82647 0.129134
0.698617 1.83293 0.0710789
0.842024 1.86378 0.00663069
-0.0984509 1.96799 0.449304
0.0427519 1.99917 0.380101
0.18575 2.0058 0.298067
0.331707 1.99952 0.212238
0.478205 1.99289 0.127159
0.619826 1.99925 0.0427012
0.749722 2.03035 -0.0456792
-0.0976716 2.13392 0.555922
0.0288854 2.16551 0.462565
0.155179 2.17214 0.356571
0.283668 2.16608 0.246441
0.412793 2.15948 0.136874
0.537363 2.16555 0.0288383
0.649316 2.19687 -0.0812268
-0.0781903 2.30031 0.659727
0.0297288 2.33202 0.545237
0.135659 2.33822 0.418473
0.24299 2.33258 0.28776
0.350997 2.32645 0.157778
0.454697 2.33203 0.0296626
0.545394 2.36326 -0.0981744
-0.0397477 2.46791 0.760662
0.0455063 2.49836 0.628308
0.126915 2.50367 0.484211
0.209183 2.49922 0.336935
0.292249 2.49409 0.190371
0.37161 2.4983 0.0454888
0.438812 2.52791 -0.0968767
0.0193375 2.64052 0.854225
0.0757128 2.66501 0.706154
0.130094 2.66839 0.549542
0.18476 2.6658 0.390736
0.240329 2.66261 0.2327
0.293781 2.66492 0.0757597
0.334881 2.68884 -0.0792891
0.0907441 2.82139 0.931466
0.117585 2.83241 0.773153
0.143611 2.83334 0.609655
0.170629 2.8326 0.445355
0.198634 2.83167 0.281605
0.226811 2.83236 0.117657
0.243156 2.8443 -0.0477311
0.166666 3 1
0.166666 3 0.833334
0.166666 3 0.666667
0.166666 3 0.5
0.166666 3 0.333333
0.166666 3 0.166666
0.166666 3 -1.01328e-06
0.666667 0 -1.2517e-06
0.666667 0 0.166666
0.666667 0 0.333333
0.666667 0 0.5
0.666667 0 0.666667
0.666667 0 0.833334
0.666667 0 1
0.581699 0.159246 -0.0228389
0.609672 0.166716 0.143601
0.63771 0.166891 0.308748
0.664691 0.166734 0.473341
0.691229 0.166864 0.637689
0.71839 0.168322 0.801301
0.752495 0.173331 0.962769
0.497658 0.31673 -0.0294419
0.549564 0.331684 0.13005
0.604081 0.333908 0.288447
0.657952 0.333524 0.446533
0.711526 0.333865 0.604081
0.767311 0.337367 0.759623
0.827158 0.348474 0.912703
0.407452 0.478354 -0.0208532
0.484242 0.496398 0.12688
0.564586 0.5008 0.273073
0.645682 0.500395 0.419132
0.726919 0.50074 0.564595
0.809649 0.505855 0.707716
0.896141 0.52132 0.847664
0.31879 0.643128 0.00320904
0.418467 0.661802 0.135623
0.52279 0.667514 0.265
0.628708 0.667206 0.394194
0.734993 0.667458 0.522788
0.842205 0.673489 0.64898
0.952171 0.690784 0.77209
0.235687 0.809311 0.0420702
0.356564 0.82781 0.155137
0.481452 0.83404 0.26447
0.608288 0.833835 0.373291
0.735518 0.833989 0.481452
0.863103 0.840397 0.587225
0.993339 0.858181 0.689042
0.159062 0.976065 0.0960713
0.298051 0.994154 0.185738
0.440086 1.00048 0.271403
0.584132 1.0004 0.356113
0.728579 1.00042 0.440091
0.872852 1.00694 0.521819
1.01937 1.02486 0.598645
0.093173 1.1428 0.162379
0.245711 1.16062 0.226384
0.400608 1.16692 0.285585
0.557338 1.16691 0.343473
0.71436 1.16687 0.400619
0.87082 1.17332 0.455661
1.02859 1.19119 0.505737
0.0405235 1.30936 0.23845
0.202 1.32713 0.274855
0.364887 1.33339 0.30617
0.529297 1.33338 0.335886
0.693823 1.33337 0.364874
0.857415 1.33973 0.391847
1.02144 1.35746 0.413615
0.00178576 1.4759 0.32333
0.167138 1.49364 0.330732
0.33297 1.49993 0.332933
0.500015 1.49993 0.333332
0.667045 1.49993 0.332943
0.832807 1.50625 0.330685
0.998074 1.5239 0.323264
-0.021531 1.64236 0.413691
0.142548 1.66011 0.391846
0.306199 1.66647 0.364852
0.470743 1.6665 0.335881
0.635109 1.66649 0.306171
0.797903 1.67281 0.274807
0.959297 1.69046 0.238377
-0.0285818 1.80866 0.505813
0.129186 1.82651 0.455633
0.285648 1.83296 0.40058
0.442653 1.83299 0.343437
0.599385 1.83299 0.285601
0.754233 1.83933 0.226337
0.906731 1.85704 0.162299
-0.0192827 1.97498 0.598649
0.127205 1.99296 0.521764
0.271449 1.99944 0.440053
0.415841 1.99951 0.35609
0.55989 1.99947 0.27141
0.701898 2.00578 0.185706
0.840822 2.0238 0.0960284
0.00674867 2.14169 0.689031
0.136916 2.15957 0.587177
0.264511 2.16592 0.481418
0.391725 2.16613 0.373265
0.518525 2.16594 0.26447
0.64339 2.17213 0.15515
0.764149 2.19058 0.0420524
0.0478744 2.3091 0.772086
0.157827 2.32657 0.648983
0.265012 2.33247 0.522735
0.371276 2.3328 0.394162
0.477188 2.33251 0.264986
0.581513 2.33816 0.135651
0.681091 2.35678 0.0032202
0.103882 2.47858 0.84766
0.190407 2.49424 0.7077
0.273078 2.49924 0.564539
0.354306 2.4996 0.419097
0.435398 2.49927 0.273056
0.515767 2.50357 0.126889
0.592474 2.52157 -0.02081
0.172796 2.65146 0.912699
0.232702 2.66271 0.759628
0.288468 2.66614 0.604037
0.342083 2.6665 0.446521
0.395915 2.66614 0.288435
0.450421 2.6683 0.130049
[...]
POINT_DATA 931
SCALARS scalars float 1
LOOKUP_TABLE default
1 0.849837 0.745357 0.707107 0.745357 0.849838 1 0.926854 0.770191 0.676317 0.642844 0.682158 0.786709 0.926861 0.826884 0.688247 0.604733 0.57809 0.616042 0.709391 0.826932 0.715046 0.596133 0.525114 0.50502 0.540283 0.620485 0.715054 0.60169 0.500246 0.441999 0.427393 0.459495 0.526794 0.601633 0.486862 0.40253 0.356608 0.346876 0.375421 0.430294 0.48678 0.367478 0.300842 0.267143 0.261942 0.286614 0.329406 0.367428 0.246251 0.197792 0.176477 0.175429 0.196128 0.226709 0.24619 0.12412 0.0960471 0.0865039 0.0884734 0.105892 0.124397 0.124078 0.00541367 0.034155 0.0260201 0.00201488 0.0262244 0.0343094 0.00540486 0.124385 0.124554 0.106 0.08859 0.0867739 0.0963561 0.124407 0.24648 0.226883 0.196237 0.175495 0.176662 0.19803 0.246542 0.367685 0.329607 0.286736 0.262038 0.267277 0.301035 0.367739 0.48703 0.430477 0.37553 0.346932 0.356705 0.402722 0.487132 0.601841 0.52692 0.459537 0.427439 0.442103 0.500422 0.601973 0.715228 0.620541 0.540307 0.505107 0.525246 0.596298 0.715311 0.827036 0.70943 0.616061 0.578191 0.604884 0.688402 0.827159 0.92694 0.786665 0.682129 0.642903 0.676503 0.770285 0.926979 1 0.849838 0.745357 0.707108 0.745357 0.849838 1 0.849837 0.666667 0.527047 0.471405 0.527047 0.666667 0.849838 0.786663 0.608489 0.481871 0.431449 0.481936 0.608499 0.770221 0.709397 0.547123 0.431355 0.386798 0.433516 0.547125 0.688286 0.620503 0.477282 0.375166 0.336997 0.378791 0.477262 0.596141 0.526847 0.402583 0.315848 0.28412 0.320181 0.402569 0.500257 0.430368 0.326385 0.255716 0.23058 0.260452 0.326367 0.402534 0.329492 0.246763 0.192714 0.174378 0.197693 0.246746 0.300858 0.226755 0.165082 0.128142 0.116608 0.133128 0.165066 0.197791 0.124421 0.0831664 0.063601 0.0588155 0.0686192 0.0831555 0.0960676 0.0342442 0.00115711 0.0067834 5.89876e-05 0.00693946 0.00115253 0.034196 0.0963008 0.0831947 0.0686206 0.0588376 0.0636474 0.0832724 0.124593 0.197972 0.165099 0.133142 0.116604 0.128125 0.165184 0.226925 0.301 0.246799 0.197688 0.174355 0.192689 0.246887 0.329622 0.402656 0.326406 0.260446 0.230573 0.255716 0.326491 0.430514 0.500313 0.402578 0.320164 0.28411 0.31587 0.402663 0.526975 0.596188 0.477279 0.378757 0.336996 0.375214 0.477363 0.620618 0.688327 0.547103 0.433478 0.386761 0.431441 0.54716 0.709486 0.770257 0.60847 0.481906 0.431455 0.481943 0.6085 0.786702 0.849838 0.666668 0.527047 0.471405 0.527047 0.666668 0.849838 0.745357 0.527047 0.333334 0.235702 0.333334 0.527047 0.745357 0.68212 0.481926 0.305368 0.21616 0.305345 0.48188 0.676382 0.616072 0.433517 0.274444 0.194328 0.274439 0.431391 0.604792 0.540309 0.378801 0.238977 0.169071 0.238983 0.375177 0.525145 0.459525 0.320182 0.201405 0.142373 0.2014 0.315845 0.442014 0.375446 0.260472 0.163346 0.115426 0.16334 0.255728 0.356638 0.286647 0.197688 0.123417 0.0871625 0.123412 0.192709 0.267177 0.196154 0.133126 0.0824974 0.058228 0.0824745 0.128115 0.176469 0.105922 0.0686045 0.0416355 0.0294084 0.0416207 0.0635984 0.0865278 0.0261532 0.00688533 0.00054548 7.23541e-05 0.000548847 0.00680974 0.0260086 0.0866692 0.0636274 0.0415898 0.0293684 0.0416382 0.0686899 0.106016 0.176563 0.128096 0.0824387 0.0582318 0.0824938 0.133196 0.19625 0.26719 0.192646 0.123366 0.087183 0.123434 0.197743 0.286736 0.356637 0.255679 0.163298 0.115405 0.163367 0.260495 0.375556 0.442022 0.315846 0.201349 0.142373 0.201431 0.32018 0.459595 0.52515 0.375163 0.23893 0.169063 0.238996 0.378788 0.540334 0.604776 0.431397 0.274397 0.194292 0.27445 0.433531 0.616095 0.676383 0.481883 0.305333 0.216151 0.305383 0.481949 0.682185 0.745357 0.527047 0.333334 0.235703 0.333334 0.527047 0.745357 0.707108 0.471405 0.235703 1.68587e-07 0.235703 0.471405 0.707108 0.642856 0.431457 0.216195 7.94113e-05 0.216162 0.43147 0.642883 0.578144 0.386796 0.194353 0.0002231 0.194326 0.386829 0.578136 0.505071 0.337 0.16908 4.93544e-05 0.169077 0.337009 0.505053 0.427429 0.284112 0.142379 0.000186658 0.142365 0.28413 0.427417 0.346896 0.230571 0.115418 0.000243989 0.115428 0.230594 0.346898 0.261974 0.174358 0.0871829 0.000198977 0.0871791 0.174374 0.26193 0.17546 0.116589 0.0582582 7.59801e-05 0.0582573 0.116616 0.175409 0.0885359 0.0588319 0.0294253 5.46397e-05 0.0293683 0.0588354 0.0884685 0.00207186 1.82282e-05 5.77607e-05 6.53468e-05 0.000102534 0.000138286 0.00197717 0.088497 0.0588274 0.0293485 7.156e-05 0.02942 0.0588502 0.0886311 0.175449 0.116615 0.0582211 0.000174562 0.0582896 0.116616 0.175557 0.261965 0.174355 0.0871486 0.000291361 0.0872388 0.174382 0.262076 0.346893 0.230556 0.1154 0.000391405 0.115465 0.230581 0.346977 0.427409 0.284078 0.142348 0.000345676 0.142421 0.284114 0.427449 0.505026 0.336974 0.169034 9.538e-05 0.169092 0.337016 0.505082 0.578107 0.386775 0.194284 0.000140849 0.194322 0.386808 0.578188 0.64286 0.431457 0.216129 9.31731e-05 0.2162 0.431493 0.642907 0.707108 0.471405 0.235703 8.42937e-08 0.235703 0.471405 0.707108 0.745357 0.527047 0.333334 0.235703 0.333334 0.527047 0.745357 0.6764 0.481898 0.305377 0.216186 0.305349 0.481929 0.682164 0.604788 0.431375 0.27445 0.194328 0.27443 0.433523 0.616084 0.52515 0.375161 0.238968 0.169079 0.238974 0.378804 0.540296 0.442031 0.315837 0.201398 0.142371 0.201403 0.320189 0.459527 0.356654 0.255704 0.163336 0.11541 0.163352 0.260486 0.375462 0.267218 0.192716 0.123409 0.0871797 0.123422 0.197723 0.286629 0.176554 0.128153 0.0825035 0.0582685 0.082506 0.13317 0.19614 0.0866258 0.0636272 0.0416663 0.0294023 0.0416145 0.0686568 0.105928 0.0260761 0.00687249 0.000514213 6.30099e-05 0.000486969 0.00696798 0.0262481 0.105906 0.0686231 0.0415708 0.0294062 0.0416653 0.0636611 0.0867157 0.196159 0.133177 0.0824435 0.0582523 0.0825248 0.128151 0.176615 0.286667 0.197712 0.123352 0.0871873 0.12345 0.192724 0.267231 0.375497 0.260466 0.163285 0.11542 0.163383 0.255743 0.356658 0.45953 0.320156 0.201353 0.14234 0.201431 0.315899 0.442053 0.540274 0.378776 0.238958 0.169041 0.239014 0.375247 0.525215 0.616022 0.433508 0.274424 0.194305 0.274462 0.431454 0.604858 0.682157 0.481941 0.305346 0.216173 0.30539 0.481957 0.676464 0.745357 0.527047 0.333334 0.235702 0.333334 0.527047 0.745357 0.849838 0.666668 0.527047 0.471405 0.527047 0.666668 0.849838 0.770218 0.608483 0.481931 0.431457 0.481879 0.608492 0.78671 0.688294 0.547123 0.433507 0.386792 0.431359 0.547126 0.70942 0.59618 0.477298 0.378778 0.336987 0.375149 0.477297 0.620507 0.500299 0.4026 0.320181 0.284114 0.315825 0.402582 0.526847 0.402596 0.326405 0.260476 0.230559 0.255704 0.326388 0.430359 0.30092 0.246786 0.197715 0.174366 0.192698 0.246789 0.329472 0.197872 0.165124 0.133179 0.116618 0.128121 0.165107 0.226776 0.0961546 0.0832108 0.0686675 0.0588529 0.0636021 0.0831757 0.124447 0.0342317 0.00112261 0.00692858 0.000103693 0.00675957 0.00108611 0.0343071 0.124453 0.0831905 0.0636091 0.0588509 0.068666 0.0832696 0.0963208 0.226789 0.165118 0.1281 0.116609 0.133177 0.165166 0.197985 0.329517 0.24682 0.192665 0.174372 0.19773 0.246876 0.300979 0.430433 0.326412 0.255701 0.230593 0.260492 0.326483 0.40268 0.526886 0.402587 0.315841 0.284115 0.320174 0.402633 0.50034 0.620518 0.477333 0.375161 0.336998 0.378793 0.477363 0.596266 0.70943 0.547166 0.431398 0.386791 0.43353 0.547186 0.688411 0.786704 0.608521 0.481902 0.431443 0.48196 0.608507 0.770274 0.849838 0.666667 0.527047 0.471405 0.527047 0.666667 0.849838 1 0.849838 0.745357 0.707108 0.745357 0.849838 1 0.926887 0.786652 0.682093 0.642849 0.676392 0.770201 0.926831 0.826963 0.709406 0.616033 0.578103 0.604772 0.688271 0.826961 0.715102 0.620517 0.540264 0.505014 0.525125 0.596143 0.715094 0.601734 0.526862 0.459496 0.427365 0.441985 0.500234 0.601695 0.486886 0.430374 0.375419 0.346844 0.356608 0.402545 0.486817 0.367527 0.329506 0.286626 0.261932 0.267183 0.300904 0.367472 0.246289 0.226789 0.196135 0.175412 0.176503 0.197864 0.246295 0.124184 0.124461 0.105898 0.0884973 0.0865859 0.0961227 0.124188 0.00540611 0.0342439 0.0261104 0.00199501 0.0260632 0.0342182 0.00543745 0.124246 0.0962271 0.0866685 0.0885894 0.105982 0.124553 0.12436 0.246362 0.197954 0.176579 0.175511 0.196211 0.226892 0.246478 0.36763 0.301013 0.267212 0.262031 0.286727 0.329607 0.367694 0.487055 0.4027 0.356681 0.346968 0.375549 0.430475 0.487049 0.601879 0.50036 0.442067 0.427459 0.459582 0.526932 0.601872 0.715265 0.596265 0.525203 0.505102 0.540311 0.620558 0.715235 0.827103 0.688412 0.604831 0.578182 0.616084 0.709437 0.827077 0.926929 0.770314 0.676425 0.642894 0.682192 0.786713 0.92687 1 0.849838 0.745357 0.707108 0.745357 0.849838 1 
