# vtk DataFile Version 5.1
vtk output
ASCII

DATASET UNSTRUCTURED_GRID
POINTS 19855 float
0 -9.23872e-07 1
0.17311 -0.0625731 0.911895
0.3375 -0.125853 0.8037
0.498374 -0.170137 0.683326
0.663431 -0.193607 0.558923
0.832525 -0.193237 0.441193
0.997616 -0.171495 0.319408
1.16321 -0.12937 0.202403
1.33236 -0.0690922 0.0996452
1.49821 0.0106603 0.00653922
1.66347 0.104992 -0.0723587
1.83243 0.208743 -0.131453
1.99793 0.326097 -0.172158
2.16289 0.448688 -0.192602
2.33205 0.566736 -0.19173
2.49696 0.690473 -0.167477
2.65868 0.809965 -0.121742
2.82568 0.915649 -0.0597975
3 1 -1.2815e-06
0 -9.23872e-07 0.833334
0.144977 -0.0402941 0.755324
0.304623 -0.073577 0.65817
0.466609 -0.0916638 0.553007
0.63354 -0.0928345 0.445123
0.801094 -0.074272 0.344595
0.966526 -0.03735 0.246594
1.13326 0.0149677 0.154804
1.30097 0.0817645 0.0764606
1.46709 0.16322 0.010915
1.63366 0.254039 -0.0411793
1.80073 0.350935 -0.0758475
1.96654 0.455576 -0.091692
2.13341 0.561242 -0.0904061
2.30048 0.66161 -0.0719772
2.46507 0.761616 -0.0324442
2.63255 0.854613 0.0240287
2.80411 0.933609 0.0937263
3 1 0.166666
0 -9.83477e-07 0.666667
0.150317 -0.0173022 0.583109
0.310425 -0.0218354 0.496384
0.474032 -0.0129407 0.405839
0.641358 0.0107064 0.315102
0.808362 0.0508705 0.233761
0.974319 0.104847 0.159786
1.14109 0.169845 0.0946776
1.30828 0.24534 0.0438881
1.47486 0.329674 0.00754845
1.64129 0.418363 -0.0153822
1.80793 0.509063 -0.0219158
1.97447 0.601091 -0.0109286
2.14133 0.689632 0.0144775
2.30775 0.770962 0.0542418
2.47431 0.846414 0.111062
2.64398 0.911177 0.177993
2.81678 0.961455 0.251643
3 1 0.333333
0 -9.83477e-07 0.5
0.165573 0.0100215 0.413551
0.332193 0.0328753 0.333884
0.499103 0.0691469 0.256228
0.666658 0.118848 0.182646
0.833461 0.180405 0.121728
0.999807 0.251476 0.0720807
1.16668 0.32984 0.0343713
1.33353 0.413707 0.0124201
1.49994 0.500493 0.00573347
1.66654 0.5871 0.0127262
1.8334 0.670863 0.0353777
1.99983 0.749494 0.073593
2.1665 0.820738 0.123485
2.33309 0.882004 0.184846
2.5005 0.931362 0.258579
2.66767 0.967572 0.335944
2.83407 0.990058 0.415306
3 1 0.5
0 -9.83477e-07 0.333333
0.18274 0.0395167 0.250164
0.355984 0.0900006 0.175701
0.525211 0.154382 0.108715
0.691652 0.229787 0.0526321
0.858354 0.311873 0.0131119
1.02513 0.399866 -0.0123988
1.19197 0.491247 -0.0225717
1.35843 0.582482 -0.0152961
1.52476 0.671105 0.00759214
1.69168 0.75513 0.0444296
1.85865 0.830952 0.0961893
2.02492 0.895894 0.161251
2.19134 0.949737 0.235505
2.35827 0.989888 0.317727
2.52542 1.01313 0.408095
2.68943 1.02184 0.498124
2.84982 1.01692 0.584909
3 1 0.666667
0 -1.04308e-06 0.166666
0.194755 0.0680531 0.0928519
0.36645 0.147824 0.0223284
0.533328 0.240578 -0.0347908
0.698134 0.339514 -0.072752
0.865417 0.441011 -0.0907352
1.032 0.546212 -0.0924498
1.19841 0.649522 -0.0756888
1.36514 0.747207 -0.0400174
1.53161 0.837403 0.011931
1.69829 0.918432 0.0780393
1.86527 0.985863 0.157648
2.03189 1.03721 0.248541
2.19785 1.07408 0.347141
2.36487 1.09278 0.449045
2.53243 1.09071 0.555181
2.69483 1.07295 0.660201
2.85513 1.03925 0.757276
3 1 0.833334
0 -1.04308e-06 -1.2517e-06
0.174185 0.0875502 -0.0581982
0.339834 0.193584 -0.121239
0.498135 0.316345 -0.16764
0.666333 0.436066 -0.189959
0.835203 0.554803 -0.190104
0.99847 0.677948 -0.168909
1.16596 0.792035 -0.128186
1.33376 0.896487 -0.0675205
1.49976 0.989374 0.0110986
1.6655 1.06809 0.104432
1.83325 1.12855 0.209113
2.00096 1.16886 0.322985
2.16408 1.19006 0.446633
2.33292 1.18973 0.565711
2.50179 1.16679 0.684783
2.6597 1.12094 0.807458
2.82607 1.05853 0.913508
3 1 1
0 0.166666 1
0.195087 0.0899322 0.932527
0.366799 0.0197795 0.851968
0.533362 -0.0364657 0.757926
0.697732 -0.0757589 0.657485
0.864661 -0.0936789 0.556927
1.03161 -0.0940932 0.451401
1.19759 -0.0773121 0.34667
1.36462 -0.0419644 0.249987
1.53134 0.0109718 0.159644
1.69752 0.0776545 0.0783671
1.86511 0.156976 0.0117239
2.03171 0.249579 -0.0398603
2.19707 0.348551 -0.0759797
2.36467 0.449784 -0.0941512
2.53165 0.557954 -0.092203
2.69397 0.662325 -0.0728458
2.85448 0.757929 -0.0386841
3 0.833334 -1.2815e-06
0 0.166666 0.833334
0.168543 0.118593 0.776468
0.334561 0.077036 0.704847
0.500305 0.0468881 0.625562
0.666386 0.0301029 0.54203
0.833022 0.0304076 0.460994
0.999856 0.0450094 0.379481
1.16645 0.0722136 0.300502
1.33298 0.113314 0.229917
1.49975 0.167413 0.167396
1.66667 0.230409 0.113493
1.83316 0.301309 0.0725122
1.99954 0.380574 0.0456792
2.16637 0.462519 0.031388
2.33307 0.543869 0.0310932
2.49921 0.627513 0.0480006
2.66533 0.706484 0.0783519
2.83145 0.777373 0.119881
3 0.833334 0.166666
0 0.166666 0.666667
0.163651 0.147135 0.610108
0.327479 0.134281 0.549046
0.493659 0.130835 0.484775
0.660397 0.138074 0.418715
0.826917 0.158335 0.357784
0.993909 0.188798 0.300656
1.16065 0.227638 0.248337
1.32702 0.275631 0.20534
1.49388 0.331262 0.17159
1.66078 0.391185 0.14641
1.82699 0.454312 0.132852
1.99366 0.519849 0.131752
2.16075 0.584454 0.1406
2.32717 0.645691 0.1603
2.49412 0.704339 0.192932
2.66235 0.756602 0.233212
2.83157 0.800704 0.280181
3 0.833334 0.333333
0 0.166666 0.5
0.164599 0.174079 0.442989
0.331004 0.190106 0.389967
0.498642 0.214206 0.338883
0.665781 0.246923 0.290067
0.832426 0.287827 0.249729
0.999515 0.334844 0.21684
1.1663 0.386486 0.191674
1.33252 0.442051 0.177171
1.49938 0.499658 0.172741
1.66627 0.557087 0.1771
1.83252 0.612567 0.192112
1.99921 0.664594 0.217539
2.16647 0.711995 0.250376
2.33285 0.752784 0.290941
2.49989 0.785621 0.339882
2.66776 0.810109 0.390832
2.83467 0.826003 0.443786
3 0.833334 0.5
0 0.166666 0.333333
0.167675 0.199988 0.279425
0.336678 0.244058 0.232502
0.504725 0.295613 0.192135
0.671478 0.353893 0.159951
0.838229 0.415462 0.140344
1.00543 0.479467 0.131196
1.17204 0.544445 0.132709
1.33821 0.607843 0.146743
1.50504 0.667761 0.171599
1.6721 0.72311 0.205423
1.83835 0.771362 0.249077
2.00487 0.810367 0.301241
2.17204 0.840931 0.358349
2.33871 0.861382 0.419852
2.50537 0.868744 0.485738
2.67208 0.865716 0.54943
2.83642 0.853021 0.610446
3 0.833334 0.666667
0 0.166666 0.166666
0.167926 0.224166 0.119601
0.333976 0.295253 0.0779899
0.500101 0.373378 0.0477662
0.666213 0.45622 0.0315065
0.832963 0.538099 0.0321062
1.00003 0.619269 0.0461064
1.16648 0.697551 0.0732618
1.33279 0.768832 0.114919
1.49971 0.831395 0.168398
1.66667 0.884967 0.231078
1.83296 0.926603 0.302497
1.99936 0.953593 0.380737
2.16645 0.967791 0.462
2.33331 0.968452 0.544132
2.49955 0.951812 0.626808
2.66583 0.922117 0.705046
2.83215 0.881244 0.776237
3 0.833334 0.833334
0 0.166666 -1.2517e-06
0.144943 0.243874 -0.0386412
0.304848 0.340538 -0.0724416
0.467211 0.445433 -0.0906462
0.634524 0.551863 -0.0920978
0.801543 0.653384 -0.07338
0.96749 0.751636 -0.0367045
1.13416 0.842464 0.0148795
1.30114 0.921804 0.0823302
1.46782 0.987636 0.16313
1.63425 1.03946 0.253487
1.80104 1.07504 0.351217
1.96733 1.09155 0.454367
2.13398 1.08992 0.559549
2.30134 1.07176 0.66122
2.46656 1.03347 0.759936
2.63338 0.977208 0.85215
2.8049 0.907124 0.932274
3 0.833334 1
0 0.333333 1
0.183581 0.249628 0.962118
0.356858 0.175228 0.910939
0.52548 0.107956 0.845456
0.692059 0.0507781 0.769743
0.858437 0.0109932 0.688307
1.02525 -0.0139605 0.599859
1.19187 -0.0245256 0.507721
1.35857 -0.017795 0.416802
1.5251 0.00563105 0.328223
1.69175 0.0426431 0.243818
1.85906 0.0940258 0.168037
2.02552 0.159928 0.103185
2.1915 0.234681 0.0494238
2.35848 0.316587 0.00914823
2.5258 0.407988 -0.0138121
2.68925 0.498705 -0.0222726
2.85006 0.585173 -0.0171086
3 0.666667 -1.3411e-06
0 0.333333 0.833334
0.168792 0.279231 0.80089
0.33792 0.232218 0.756837
0.505976 0.191583 0.704641
0.672908 0.158576 0.646178
0.839313 0.138565 0.585095
1.00628 0.129608 0.520821
1.17312 0.130718 0.45526
1.3394 0.144178 0.392074
1.50615 0.169363 0.33216
1.6731 0.203341 0.276394
1.83945 0.246599 0.228095
2.00597 0.299252 0.189185
2.17307 0.35697 0.158477
2.33957 0.418295 0.137925
2.50622 0.484899 0.130635
2.67267 0.549427 0.134079
2.83632 0.610377 0.147182
3 0.666667 0.166666
0 0.333333 0.666667
0.165521 0.309179 0.636981
0.33204 0.289431 0.602249
0.499346 0.274794 0.563939
0.666387 0.266042 0.522525
0.832922 0.265934 0.481838
1.00006 0.272785 0.441638
1.16694 0.28587 0.402533
1.33313 0.306184 0.367068
1.49991 0.332911 0.335781
1.66687 0.364056 0.308727
1.83311 0.399452 0.288027
1.99983 0.438685 0.274575
2.16707 0.479342 0.267104
2.33367 0.520365 0.266638
2.50068 0.562173 0.274913
2.66791 0.601044 0.289212
2.83455 0.636207 0.309147
3 0.666667 0.333333
0 0.333333 0.5
0.164771 0.336953 0.472255
0.331117 0.344741 0.445796
0.498564 0.356576 0.420243
0.665664 0.372807 0.395683
0.832386 0.393102 0.375502
0.999631 0.416322 0.359141
1.16647 0.442028 0.346492
1.33269 0.469795 0.339086
1.49952 0.498562 0.336686
1.66639 0.527247 0.338694
1.83264 0.555058 0.346119
1.99939 0.581179 0.358696
2.16668 0.605058 0.374906
2.33334 0.625715 0.395038
2.50047 0.642431 0.419547
2.66803 0.65498 0.445215
2.83464 0.663109 0.472102
3 0.666667 0.5
0 0.333333 0.333333
0.16499 0.363805 0.309008
0.331509 0.398536 0.289445
0.4989 0.436635 0.275194
0.665834 0.477967 0.267001
0.832604 0.518836 0.267321
0.999885 0.558834 0.274502
1.16661 0.5977 0.288002
1.33282 0.633333 0.308646
1.49972 0.664416 0.335186
1.66667 0.691099 0.366365
1.83288 0.71175 0.402043
1.99948 0.725215 0.440884
2.16683 0.732514 0.48102
2.33358 0.732955 0.522027
2.50057 0.724712 0.56337
2.66817 0.71074 0.601596
2.83476 0.691285 0.636518
3 0.666667 0.666667
0 0.333333 0.166666
0.163571 0.390388 0.147665
0.327831 0.450844 0.134793
0.494278 0.514406 0.131405
0.660892 0.58029 0.138946
0.827537 0.64154 0.159317
0.994716 0.698385 0.189709
1.16134 0.750523 0.228796
1.32758 0.794097 0.277001
1.49455 0.827741 0.33216
1.66149 0.852596 0.392073
1.82767 0.866714 0.455559
1.99418 0.8681 0.520442
2.16153 0.859083 0.584393
2.32823 0.839613 0.646069
2.49522 0.807256 0.704325
2.66336 0.767421 0.755835
2.83244 0.720952 0.799971
3 0.666667 0.833334
0 0.333333 -1.3113e-06
0.15032 0.416177 -0.0162983
0.310527 0.502691 -0.0215402
0.474514 0.592364 -0.0129604
0.64148 0.68271 0.0106838
[...]
POINT_DATA 19855
SCALARS scalars float 1
LOOKUP_TABLE default
1 0.914062 0.813505 0.70419 0.591514 0.481656 0.362543 0.240241 0.121259 0.0126332 0.127552 0.246687 0.368757 0.488293 0.598291 0.7105 0.819102 0.917631 1 0.849837 0.783465 0.701234 0.611283 0.516307 0.421707 0.321795 0.219301 0.118751 0.0348481 0.102074 0.201917 0.304952 0.406163 0.501228 0.596856 0.689211 0.773201 0.849837 0.745357 0.680609 0.610792 0.534121 0.451684 0.367496 0.279995 0.190648 0.101472 0.0265022 0.0900591 0.178904 0.269194 0.357492 0.441718 0.525592 0.605062 0.676857 0.745357 0.707107 0.641174 0.574182 0.501286 0.422654 0.341992 0.258766 0.173596 0.0871828 0.00575491 0.0880247 0.174487 0.260121 0.343688 0.424376 0.502928 0.575746 0.642368 0.707107 0.745357 0.675394 0.603264 0.524299 0.440748 0.355916 0.268269 0.178667 0.0891676 0.0262731 0.102106 0.19205 0.281368 0.369053 0.453921 0.535933 0.612206 0.68196 0.745357 0.849838 0.771404 0.686672 0.59471 0.500141 0.403954 0.303331 0.201304 0.100155 0.0340283 0.119716 0.221672 0.323042 0.423604 0.519565 0.612799 0.702904 0.785075 0.849837 1 0.914335 0.815505 0.703911 0.595068 0.48409 0.363662 0.244298 0.123588 0.0153671 0.124677 0.245466 0.364465 0.485395 0.596681 0.704806 0.816494 0.91541 1 0.849837 0.771646 0.686403 0.593321 0.497601 0.402567 0.301541 0.198329 0.0983978 0.0339433 0.121569 0.222842 0.325497 0.425781 0.520878 0.615896 0.70483 0.785539 0.849837 0.666667 0.611696 0.545595 0.47427 0.399434 0.324338 0.245134 0.163809 0.0827485 0.00107354 0.0830092 0.164298 0.245753 0.325314 0.400826 0.47588 0.546995 0.612499 0.666667 0.527047 0.480957 0.431127 0.377146 0.318895 0.259213 0.197182 0.133707 0.06975 0.00812003 0.0615776 0.125776 0.189861 0.252539 0.312484 0.371981 0.42849 0.480962 0.527047 0.471405 0.427297 0.381972 0.333674 0.28156 0.227854 0.172609 0.116237 0.0588993 0.00611546 0.0580336 0.11541 0.172278 0.227924 0.281681 0.33404 0.382647 0.427873 0.471405 0.527047 0.480109 0.427719 0.371957 0.312883 0.252627 0.190608 0.126965 0.0622977 0.00713848 0.0686836 0.133333 0.196936 0.259112 0.319446 0.377717 0.43146 0.481329 0.527047 0.666667 0.610984 0.545339 0.475075 0.400603 0.324453 0.245679 0.164807 0.0826959 0.00261565 0.0825517 0.16477 0.245538 0.324501 0.40092 0.47515 0.545652 0.611452 0.666667 0.849837 0.783805 0.70205 0.612233 0.518478 0.422819 0.322647 0.221164 0.11943 0.0346512 0.100723 0.201824 0.303679 0.404364 0.500756 0.595153 0.686669 0.771744 0.849837 0.745357 0.676735 0.604058 0.523998 0.440087 0.35603 0.268082 0.177898 0.0889978 0.0262293 0.102278 0.191899 0.281418 0.369184 0.453823 0.536311 0.612921 0.682288 0.745357 0.527047 0.480921 0.428572 0.37219 0.313011 0.253396 0.191218 0.127279 0.0631906 0.00681795 0.0680335 0.132293 0.195943 0.258517 0.318654 0.377355 0.431559 0.481186 0.527047 0.333334 0.304609 0.272479 0.237921 0.200803 0.163085 0.12408 0.0839132 0.0433025 0.00248493 0.0393624 0.080152 0.12063 0.160328 0.198568 0.23618 0.271325 0.30384 0.333334 0.235702 0.214213 0.191724 0.167708 0.141657 0.114918 0.0875686 0.0594473 0.0307546 0.0036788 0.0277703 0.0565271 0.0850509 0.112984 0.140042 0.166493 0.191149 0.214156 0.235702 0.333334 0.303842 0.271705 0.237268 0.20002 0.161901 0.122837 0.0825303 0.0414837 0.00292892 0.0410856 0.0821812 0.122455 0.161701 0.199998 0.237247 0.271864 0.304186 0.333334 0.527047 0.480294 0.430983 0.377522 0.31914 0.259037 0.197147 0.133469 0.068891 0.00789452 0.0620331 0.126828 0.1904 0.252429 0.31284 0.371938 0.427625 0.479981 0.527047 0.745357 0.680704 0.611368 0.535477 0.453222 0.368529 0.281074 0.191679 0.101798 0.0265115 0.0894311 0.179052 0.268547 0.356111 0.44115 0.524765 0.603449 0.675495 0.745357 0.707108 0.642258 0.575333 0.502009 0.423365 0.342922 0.259686 0.174076 0.0875928 0.00303134 0.0870995 0.173842 0.259212 0.342678 0.423567 0.502317 0.575805 0.643051 0.707108 0.471405 0.427861 0.383156 0.334703 0.282349 0.228777 0.173568 0.116778 0.0592569 0.00329704 0.0571272 0.114806 0.171392 0.22702 0.281077 0.333611 0.382377 0.427565 0.471405 0.235702 0.214803 0.192659 0.168508 0.142193 0.115369 0.0878788 0.0595042 0.0307114 0.00174665 0.0275696 0.0565009 0.0849342 0.11288 0.140153 0.166721 0.191261 0.213904 0.235703 2.74764e-07 0.00171092 0.00204085 0.00177959 0.00175952 0.00202111 0.00236629 0.0025716 0.00266406 0.00272149 0.00264886 0.00258227 0.00246241 0.00209293 0.00180762 0.00178275 0.00211822 0.00176357 2.95028e-07 0.235703 0.214059 0.191234 0.166814 0.140413 0.113469 0.0857288 0.0571889 0.0284438 0.00391382 0.0301492 0.0589143 0.0870542 0.114549 0.141341 0.167472 0.191438 0.214051 0.235703 0.471405 0.427038 0.38215 0.333809 0.28139 0.22774 0.172371 0.115444 0.0580957 0.0069919 0.0588418 0.116271 0.172583 0.227755 0.281502 0.333711 0.381813 0.426834 0.471405 0.707108 0.640965 0.574968 0.502468 0.423649 0.343086 0.259684 0.173948 0.0874944 0.00634422 0.0876894 0.17425 0.25935 0.342435 0.423172 0.501984 0.574427 0.640945 0.707108 0.745357 0.681778 0.612244 0.5359 0.453766 0.368981 0.281483 0.192049 0.102076 0.0266083 0.0892127 0.17895 0.268722 0.356568 0.441706 0.525429 0.604982 0.678194 0.745357 0.527047 0.481395 0.432202 0.378455 0.319886 0.259632 0.197648 0.133865 0.0692022 0.00682155 0.0615668 0.126487 0.190267 0.252481 0.313007 0.37229 0.428598 0.480861 0.527047 0.333334 0.304275 0.272327 0.23757 0.200037 0.161623 0.122333 0.0819079 0.0407625 0.00159366 0.0416714 0.0827705 0.123138 0.162236 0.200564 0.237935 0.272641 0.30457 0.333334 0.235703 0.214078 0.191028 0.16633 0.139759 0.112501 0.0843966 0.0559924 0.0270721 0.0023374 0.0311895 0.0599406 0.0882869 0.115627 0.142297 0.168539 0.192693 0.215084 0.235703 0.333334 0.304167 0.271387 0.236272 0.198755 0.160554 0.12089 0.080446 0.0397103 0.00303011 0.0430714 0.0836411 0.123808 0.162823 0.200489 0.237631 0.27205 0.304177 0.333334 0.527047 0.480774 0.428224 0.371911 0.312547 0.252586 0.189997 0.125887 0.0617862 0.00886527 0.0697641 0.133739 0.197164 0.259172 0.318847 0.377197 0.430862 0.480421 0.527047 0.745357 0.67574 0.604275 0.525019 0.441083 0.35679 0.268676 0.178352 0.0894736 0.0268204 0.10206 0.19136 0.280698 0.368072 0.452265 0.534835 0.611086 0.680433 0.745357 0.849838 0.785671 0.704354 0.614443 0.520776 0.424754 0.324157 0.222541 0.120578 0.0345577 0.0998266 0.201198 0.303218 0.404341 0.501125 0.595702 0.688176 0.774315 0.849838 0.666668 0.612325 0.546817 0.476187 0.401522 0.325073 0.245916 0.16492 0.0826319 0.00276055 0.0827203 0.164984 0.245926 0.324945 0.401425 0.47588 0.546771 0.612496 0.666668 0.527047 0.48074 0.428234 0.372043 0.312625 0.252064 0.189731 0.125967 0.0611303 0.00710794 0.0695833 0.134168 0.197798 0.259716 0.319811 0.378243 0.432059 0.481457 0.527047 0.471405 0.427656 0.38208 0.333323 0.280884 0.226828 0.171123 0.114557 0.0570261 0.00448838 0.0595238 0.116789 0.173504 0.228594 0.282076 0.334285 0.38279 0.427844 0.471405 0.527047 0.481429 0.431474 0.377224 0.318685 0.258565 0.195933 0.132322 0.0681795 0.0067449 0.0631677 0.127073 0.19098 0.253142 0.312674 0.371815 0.428059 0.480445 0.527047 0.666668 0.612622 0.546756 0.475628 0.400715 0.325215 0.24556 0.164114 0.0828991 0.00220846 0.0829979 0.163963 0.245283 0.324416 0.39947 0.474381 0.545378 0.611198 0.666668 0.849838 0.77218 0.688291 0.596214 0.500661 0.40554 0.304466 0.20138 0.101556 0.0352005 0.119257 0.219884 0.322383 0.422136 0.516641 0.611813 0.701319 0.783287 0.849838 1 0.916374 0.818557 0.706869 0.598432 0.486591 0.365468 0.246283 0.125022 0.00895293 0.122724 0.243831 0.362812 0.484501 0.59618 0.704537 0.817188 0.91673 1 0.849838 0.773565 0.688259 0.59619 0.501454 0.404865 0.303903 0.201782 0.100615 0.0343828 0.119749 0.221509 0.322878 0.42365 0.519644 0.612914 0.703391 0.785281 0.849838 0.745357 0.677462 0.604823 0.525487 0.441764 0.356674 0.26877 0.179113 0.0895497 0.0265085 0.101721 0.191459 0.28066 0.368154 0.452819 0.53484 0.611506 0.681334 0.745357 0.707108 0.642803 0.575641 0.502472 0.423745 0.342853 0.259317 0.174046 0.0875189 0.00439242 0.0873642 0.173537 0.25908 0.342325 0.422622 0.501182 0.574499 0.641495 0.707108 0.745357 0.682288 0.613071 0.536381 0.45395 0.369403 0.281472 0.191963 0.10244 0.0260624 0.0887878 0.177436 0.267659 0.355545 0.439495 0.523383 0.603182 0.675407 0.745357 0.849838 0.785899 0.704538 0.615168 0.52027 0.42525 0.324807 0.22215 0.120932 0.0334545 0.098834 0.198652 0.301979 0.402871 0.497663 0.593506 0.686216 0.770781 0.849838 1 0.915935 0.817863 0.709467 0.597029 0.487066 0.367688 0.245619 0.126354 0.0134862 0.122556 0.241453 0.363865 0.482627 0.592239 0.704961 0.814401 0.913994 1 0.946078 0.895807 0.866082 0.888433 0.945252 0.974 0.946078 0.895807 0.835184 0.835184 0.898387 0.875765 0.88889 0.865978 0.923893 0.91814 0.870359 0.826316 0.806486 0.829307 0.791537 0.812474 0.840068 0.814538 0.851709 0.785675 0.724357 0.705196 0.7441 0.724357 0.785675 0.777779 0.765109 0.757441 0.860565 0.813259 0.762954 0.767072 0.796376 0.821658 0.840581 0.7879 0.813374 0.74044 0.705194 0.763225 0.735147 0.72187 0.664367 0.648812 0.630235 0.7166 0.663109 0.68515 0.684461 0.712385 0.784039 0.797996 0.847951 0.881484 0.808498 0.797846 0.78505 0.839744 0.830091 0.77632 0.73848 0.729613 0.757103 0.713591 0.736087 0.755454 0.740799 0.768648 0.642258 0.672615 0.697363 0.688095 0.765652 0.723495 0.679694 0.685157 0.716162 0.744542 0.754751 0.708408 0.725135 0.665143 0.639851 0.69167 0.662004 0.646332 0.59424 0.590202 0.568118 0.637932 0.590818 0.618552 0.615676 0.635737 0.690884 0.696775 0.741397 0.77744 0.708396 0.706882 0.693502 0.742736 0.73209 0.673686 0.642379 0.641793 0.671794 0.625801 0.649772 0.661368 0.655828 0.674676 0.569099 0.591213 0.618545 0.608387 0.662381 0.625539 0.588753 0.59521 0.625147 0.656205 0.659157 0.619541 0.628535 0.581519 0.565303 0.610305 0.580137 0.562743 0.516923 0.522225 0.498358 0.552272 0.512452 0.543215 0.539137 0.551781 0.591666 0.591097 0.629453 0.667092 0.603013 0.608987 0.595486 0.638239 0.62729 0.567658 0.542183 0.548057 0.579753 0.533079 0.55737 0.562073 0.564187 0.575611 0.490247 0.504518 0.533339 0.522943 0.556211 0.525084 0.494971 0.50178 0.529991 0.561891 0.558993 0.526416 0.529073 0.493684 0.485621 0.523431 0.493664 0.475265 0.436189 0.449464 0.424453 0.464074 0.431229 0.46329 0.458485 0.464761 0.491325 0.485764 0.518801 0.555149 0.497747 0.508963 0.495946 0.532797 0.521654 0.462478 0.442292 0.453386 0.48493 0.439532 0.46374 0.462814 0.470829 0.475454 0.409123 0.416583 0.445544 0.435686 0.450417 0.424318 0.400888 0.407916 0.434793 0.466528 0.458734 0.43252 0.429015 0.40541 0.404292 0.435203 0.406247 0.386743 0.354218 0.37466 0.34952 0.375351 0.349259 0.38185 0.376937 0.376796 0.389052 0.375532 0.402648 0.442344 0.388229 0.407373 0.39434 0.425213 0.413621 0.350581 0.336741 0.355197 0.388518 0.342428 0.368042 0.359086 0.375317 0.37206 0.326103 0.325317 0.355772 0.346421 0.337907 0.317964 0.301553 0.308955 0.335739 0.369443 0.354257 0.335093 0.323596 0.313549 0.321072 0.345 0.31542 0.293977 0.268407 0.298163 0.271667 0.281885 0.263116 0.297407 0.292216 0.284438 0.281236 0.260551 0.281255 0.321756 0.27384 0.300503 0.28743 0.312096 0.299695 0.23563 0.228477 0.253353 0.287498 0.241222 0.267464 0.251424 0.275087 0.264107 0.23914 0.230485 0.261834 0.252812 0.222678 0.209151 0.199709 0.207377 0.232939 0.267374 0.24576 0.233625 0.215324 0.218278 0.233899 0.250426 0.221083 0.198731 0.180304 0.218045 0.190842 0.186299 0.174898 0.209776 0.20437 0.18977 0.172962 0.146811 0.16097 0.200652 0.16001 0.192551 0.17936 0.197349 0.185138 0.122512 0.121857 0.151922 0.185468 0.140168 0.16583 0.143574 0.173743 0.156809 0.151024 0.135592 0.166742 0.158106 0.10939 0.102539 0.0987049 0.106436 0.131426 0.164915 0.138247 0.132378 0.107752 0.123217 0.145714 0.155078 0.126475 0.10405 0.0922489 0.136834 0.109703 0.0916266 0.0867868 0.121706 0.116215 0.0950703 0.0675663 0.0348371 0.0401064 0.0802905 0.0474259 0.0863211 0.0712857 0.0839105 0.0716325 0.0208431 0.0303632 0.0551757 0.0855859 0.0389944 0.0645548 0.0349808 0.0723934 0.0528428 0.062694 0.0419906 0.0720739 0.0629834 0.0199423 0.0294019 0.0120381 0.0126591 0.0394884 0.066438 0.0371766 0.0311299 0.00648878 0.0304501 0.0571985 0.0603807 0.0307788 0.0190859 0.00781837 0.0552069 0.0275263 0.0185262 0.00734571 0.0331003 0.0274007 0.00274237 0.0559505 0.0893107 0.0865592 0.0462721 0.0772297 0.0415916 0.0397754 0.0410277 0.0512339 0.114986 0.107225 0.0700584 0.0426543 0.0680818 0.0415764 0.076289 0.0347942 0.0731478 0.0288998 0.0626323 0.0331806 0.033898 0.127159 0.125444 0.109457 0.101975 0.0881903 0.0567731 0.0895671 0.0753226 0.112518 0.0743593 0.0339434 0.0429187 0.0661518 0.0940869 0.0881183 0.0278409 0.0555988 0.10622 0.0935569 0.0582702 0.0637776 0.097839 0.161586 0.203313 0.207066 0.167565 0.19049 0.142604 0.148867 0.153092 0.165184 0.227992 0.213461 0.168417 0.135028 0.169454 0.143508 0.184565 0.135822 0.178546 0.117639 0.157148 0.125917 0.129859 0.240922 0.232859 0.210756 0.203064 0.189043 0.155152 0.196768 0.177193 0.220355 0.169575 0.122954 0.137548 0.161492 0.188865 0.176442 0.110273 0.137481 0.201325 0.181875 0.146975 0.152545 0.192765 0.269471 0.318007 0.328411 0.287865 0.305026 0.249992 0.256686 0.267201 0.279354 0.343156 0.32223 0.270736 0.236416 0.271077 0.244924 0.292749 0.237226 0.286696 0.205862 0.252515 0.221048 0.224621 0.355857 0.341297 0.312501 0.304934 0.291468 0.257147 0.304974 0.278715 0.328607 0.264981 0.211219 0.232897 0.256352 0.284437 0.264735 0.191601 0.21885 0.296785 0.270191 0.235252 0.240873 0.28755 0.377475 0.431685 0.448993 0.40935 0.419096 0.358504 0.364676 0.381858 0.394103 0.455888 0.42875 0.37283 0.339157 0.371806 0.346242 0.399727 0.338629 0.39445 0.293898 0.347257 0.316319 0.319168 0.468079 0.447059 0.411718 0.404452 0.392792 0.359313 0.412189 0.37924 0.43429 0.35925 0.299157 0.327902 0.35002 0.378025 0.35107 0.27262 0.299235 0.389938 0.356356 0.322586 0.328049 0.380206 0.481273 0.538866 0.562148 0.525593 0.526987 0.463022 0.468325 0.492323 0.503583 0.561569 0.529346 0.469953 0.438283 0.467657 0.443725 0.501542 0.436359 0.496953 0.378896 0.437524 0.408261 0.410184 0.573755 0.547705 0.505947 0.498735 0.489736 0.457895 0.514145 0.474937 0.53446 0.449434 0.38394 0.419636 0.439626 0.467057 0.433454 0.350826 0.376116 0.478806 0.43865 0.406172 0.411582 0.46842 0.581234 0.644634 0.673588 0.636318 0.632667 0.563302 0.568238 0.597818 0.609506 0.667583 0.629887 0.565431 0.533638 0.56148 0.537524 0.600969 0.530247 0.597383 0.460677 0.525907 0.49688 0.498017 0.679264 0.647397 0.599353 0.59242 0.58476 0.553046 0.614214 0.568659 0.633833 0.537521 0.465711 0.508068 0.526953 0.555218 0.514776 0.42622 0.451319 0.566404 0.519535 0.487758 0.492956 0.555478 0.680206 0.748064 0.78364 0.747539 0.736739 0.663016 0.666621 0.703126 0.714345 0.770221 0.727113 0.658915 0.628235 0.653174 0.629955 0.698455 0.623145 0.695775 0.541194 0.612285 0.584167 0.58411 0.781232 0.742695 0.688679 0.68279 0.676035 0.646182 0.711652 0.659564 0.729695 0.622445 0.545675 0.594461 0.611961 0.640167 0.592584 0.500001 0.523801 0.649499 0.596615 0.566998 0.571514 0.638918 0.773023 0.844271 0.886266 0.853591 0.833754 0.757945 0.760327 0.803213 0.813254 0.863315 0.815212 0.746382 0.718439 0.738591 0.716976 0.788778 0.711097 0.787793 0.617529 0.692971 0.667272 0.66563 0.872509 0.828131 0.769257 0.764787 0.760458 0.733405 0.801112 0.74375 0.816325 0.700585 0.620723 0.675449 0.690624 0.717895 0.664194 0.569677 0.591586 0.723614 0.665845 0.641115 0.644005 0.714688 0.853248 0.925855 0.974334 0.946876 0.918074 0.841956 0.842654 0.892219 0.900269 0.946078 0.895807 0.820994 0.79655 0.81394 0.793086 0.868506 0.789245 0.868461 0.685637 0.764703 0.740862 0.73746 0.946078 0.895807 0.835184 0.835184 0.830168 0.808516 0.876098 0.815238 0.88889 0.765896 0.686491 0.745473 0.759244 0.785675 0.724356 0.631562 0.650023 0.785675 0.724357 0.706032 0.706348 0.777779 0.808902 0.7738 0.675863 0.702729 0.764555 0.750817 0.741204 0.720239 0.787014 0.743218 0.708715 0.700182 0.721999 0.661556 0.656829 0.699409 0.681861 0.729146 0.613632 0.566558 0.579064 0.629895 0.598352 0.671281 0.633431 0.649557 0.614156 0.619454 0.642481 0.638105 0.679045 0.579368 0.549843 0.596675 0.596167 0.611649 0.544916 0.510601 0.495146 0.562234 0.518216 0.561785 0.533828 0.578349 0.693225 0.685417 0.656997 0.718516 0.666561 0.636139 0.634933 0.658251 0.599998 0.599131 0.633523 0.621845 0.661338 0.527743 0.571303 0.591746 0.559892 0.55527 0.577209 0.577337 0.609103 0.523457 0.500868 0.543241 0.539924 0.549704 0.489645 0.464991 0.448305 0.502886 0.464352 0.509134 0.482998 0.519281 0.610498 0.609779 0.583789 0.638641 0.58169 0.555787 0.560102 0.585786 0.52912 0.531943 0.557716 0.553519 0.583054 0.469811 0.504187 0.52679 0.497912 0.48409 0.504275 0.508049 0.531198 0.460179 0.444997 0.481807 0.475884 0.480674 0.428184 0.413578 0.395471 0.438115 0.40546 0.449299 0.425475 0.453483 0.522119 0.52746 0.504215 0.551835 0.492145 0.470398 0.47942 0.50698 0.452856 0.459234 0.476753 0.478805 0.499042 0.406841 0.431833 0.45603 0.430541 0.409088 0.42675 0.434108 0.44919 0.39282 0.384668 0.415625 0.40715 0.40699 0.36259 0.358052 0.338562 0.369886 0.342804 0.384944 0.363875 0.383729 0.431837 0.441445 0.421618 0.4619 0.401358 0.3832 0.395767 0.423907 0.374106 0.383723 0.393692 0.400631 0.412421 0.340289 0.356481 0.381427 0.359966 0.332651 0.347303 0.358167 0.365464 0.323812 0.321476 0.347025 0.335969 0.330789 0.294603 0.299346 0.279365 0.300367 0.278554 0.31769 0.300164 0.311887 0.33818 0.352995 0.336777 0.369695 0.30634 0.292342 0.309266 0.33845 0.292479 0.306189 0.30761 0.320036 0.322735 0.271573 0.278484 0.30443 0.287224 0.252745 0.264632 0.279465 0.278072 0.252194 0.256393 0.276485 0.262226 0.25193 0.224229 0.238829 0.21806 0.227669 0.211649 0.248135 0.234139 0.237241 0.241608 0.261288 0.248439 0.273898 0.209396 0.199783 0.220392 0.250199 0.208308 0.22536 0.218614 0.236547 0.230423 0.200522 0.198308 0.224723 0.211736 0.170834 0.180041 0.198011 0.188707 0.17812 0.188813 0.203014 0.186196 0.171337 0.152308 0.176195 0.154954 0.153265 0.143254 0.176556 0.16606 0.160868 0.145106 0.168658 0.15899 0.177063 0.113575 0.107761 0.130953 0.160697 0.123662 0.143375 0.129287 0.151809 0.137928 0.12833 0.117381 0.143969 0.135181 0.0888541 0.0955057 0.116028 0.099512 0.103491 0.120214 0.128492 0.109455 0.0903769 0.0798116 0.112521 0.0911147 0.0785171 0.0743193 0.104184 0.0972741 0.0841224 0.0534885 0.0774696 0.0700157 0.0821411 0.0350037 0.0319401 0.0446505 0.07195 0.040792 0.0612099 0.0419842 0.0673812 0.0498796 0.0557561 0.037731 0.0630643 0.0583211 0.0119908 0.0210174 0.0340705 0.0212798 0.0280408 0.051015 0.0533762 0.0329765 0.018342 0.0123641 0.0482812 0.0268704 0.00506755 0.00750276 0.0318628 0.0279815 0.0133256 0.0675617 0.0398188 0.0321472 0.0423147 0.097739 0.0934544 0.0614455 0.0358673 0.0554109 0.0263685 0.0594329 0.0297619 0.0646823 0.0226763 0.052626 0.0280483 0.0247932 0.0802717 0.0829976 0.0529085 0.0885035 0.0489149 0.0209102 0.023726 0.0492834 0.0792482 0.0699332 0.0189649 0.040086 0.0741382 0.0668145 0.0454783 0.0437831 0.0746866 0.160884 0.123907 0.118026 0.129211 0.192896 0.184962 0.149254 0.119557 0.13927 0.107956 0.147936 0.110957 0.154514 0.0940858 0.133117 0.106387 0.100479 0.162477 0.167538 0.135237 0.177721 0.12423 0.0900302 0.0991744 0.126245 0.160253 0.142632 0.0829699 0.104457 0.149099 0.135972 0.118141 0.113127 0.151627 0.258288 0.216538 0.207629 0.22578 0.290803 0.278599 0.239312 0.209244 0.22443 0.190199 0.237771 0.195942 0.247747 0.166758 0.214435 0.187657 0.177487 0.244862 0.252785 0.217535 0.267706 0.199145 0.159128 0.174096 0.203282 0.24153 0.215188 0.147136 0.168564 0.224017 0.205027 0.190794 0.182208 0.228587 0.355155 0.309751 0.297341 0.323306 0.38661 0.3701 0.328475 0.299099 0.308738 0.272264 0.326789 0.28085 0.34025 0.239027 0.294835 0.268614 0.25418 0.325358 0.336178 0.298909 0.355729 0.273082 0.227822 0.248604 0.279374 0.321106 0.28617 0.210902 0.23185 0.297108 0.272424 0.26255 0.250349 0.303807 0.447748 0.399866 0.384023 0.417525 0.477863 0.457688 0.414092 0.38605 0.389644 0.351529 0.412114 0.363062 0.429085 0.30912 0.372192 0.347095 0.328371 0.402247 0.416065