# vtk DataFile Version 5.1
vtk output
ASCII

DATASET UNSTRUCTURED_GRID
POINTS 6253 float
1.02084 0 0.0208324
1.02084 0 0.187499
1.02084 0 0.354166
1.02084 0 0.520833
1.02084 0 0.687501
1.02084 0 0.854168
1.02084 0 1.02083
0.939522 0.178221 -0.040756
0.955753 0.190643 0.109982
0.984117 0.178724 0.267709
1.01307 0.164146 0.432342
1.04 0.152088 0.604242
1.06165 0.149988 0.778854
1.08014 0.176568 0.936827
0.830259 0.335266 -0.10376
0.875996 0.364714 0.0388877
0.934325 0.353937 0.193515
0.992294 0.330911 0.353778
1.04684 0.310288 0.518934
1.09631 0.305661 0.683769
1.1428 0.341552 0.830401
0.708802 0.493638 -0.15239
0.781764 0.529206 -0.0211656
0.869036 0.521884 0.122602
0.955914 0.497014 0.272798
1.03837 0.473403 0.425764
1.11509 0.467772 0.575665
1.18991 0.502263 0.706176
0.584574 0.656808 -0.178078
0.681364 0.692486 -0.0625902
0.793107 0.687106 0.0635275
0.906487 0.662779 0.19659
1.0154 0.638493 0.332758
1.11747 0.632698 0.46582
1.21452 0.665973 0.580714
0.46653 0.825319 -0.180828
0.580218 0.857783 -0.0827533
0.711215 0.851792 0.0214129
0.845595 0.82784 0.132308
0.976674 0.803836 0.247457
1.10069 0.798177 0.361116
1.21581 0.832024 0.459147
0.344575 0.989681 -0.162681
0.474152 1.02359 -0.0866478
0.621864 1.0175 -0.0070425
0.773393 0.993106 0.0787422
0.922022 0.968861 0.169029
1.06365 0.96279 0.258665
1.19468 0.996124 0.332865
0.227495 1.15501 -0.123832
0.369314 1.1894 -0.0729457
0.529237 1.18349 -0.0205473
0.694014 1.15897 0.0373531
0.856375 1.1343 0.100197
1.01137 1.12789 0.163258
1.15349 1.16046 0.212933
0.124075 1.32407 -0.0669148
0.272293 1.35616 -0.0403607
0.438294 1.34952 -0.0166513
0.610172 1.3249 0.0113803
0.781079 1.30014 0.0447545
0.945202 1.2936 0.0800662
1.09411 1.32634 0.105862
0.030651 1.49084 0.00900125
0.18134 1.52301 0.00915086
0.348728 1.51608 0.00348641
0.522343 1.49121 0.00113466
0.695867 1.46629 0.00402819
0.863238 1.45916 0.00982453
1.0141 1.49147 0.00795574
-0.0485833 1.65775 0.0997538
0.0997659 1.69042 0.0726768
0.26368 1.6833 0.0379117
0.434382 1.658 0.00536571
0.605712 1.63267 -0.0221176
0.771241 1.62532 -0.0458665
0.91931 1.65669 -0.0747656
-0.108332 1.82792 0.200389
0.0330647 1.85882 0.14912
0.18814 1.85094 0.0864083
0.350361 1.82507 0.0244582
0.51443 1.79927 -0.0325699
0.673785 1.79173 -0.0846502
0.815578 1.82353 -0.137467
-0.149809 1.99532 0.313908
-0.0193595 2.02645 0.238261
0.122344 2.01853 0.148959
0.270754 1.99264 0.0595121
0.421723 1.96653 -0.0252857
0.568942 1.95835 -0.104401
0.698592 1.9897 -0.181716
-0.171091 2.16191 0.433304
-0.056319 2.19391 0.334644
0.0677094 2.18627 0.221869
0.198335 2.16033 0.107877
0.33192 2.13428 -0.00182759
0.462263 2.12591 -0.105375
0.575109 2.15605 -0.205161
-0.170778 2.33298 0.549139
-0.0740672 2.36284 0.434017
0.0281791 2.35477 0.301985
0.136773 2.32844 0.167035
0.249416 2.30196 0.0355137
0.360472 2.29341 -0.0895075
0.456347 2.32446 -0.20658
-0.147649 2.49913 0.670274
-0.0731155 2.53016 0.539707
0.00414957 2.52247 0.390261
0.0865877 2.49695 0.238121
0.173327 2.47039 0.0894571
0.260356 2.46029 -0.0529037
0.333407 2.49094 -0.184975
-0.101441 2.66101 0.790535
-0.0539847 2.69391 0.644731
-0.0045318 2.68804 0.480365
0.0499916 2.66563 0.315519
0.108007 2.64139 0.156324
0.166102 2.62927 0.00374969
0.210784 2.65472 -0.139971
-0.0389689 2.82493 0.893905
-0.0209702 2.853 0.737224
0.000912104 2.84829 0.563708
0.0285159 2.83375 0.392371
0.0586205 2.81773 0.228343
0.0871688 2.8065 0.0713142
0.103617 2.82021 -0.0784018
0.0208324 3 0.979169
0.0208324 3 0.812502
0.0208324 3 0.645835
0.0208324 3 0.479168
0.0208323 3 0.312501
0.0208323 3 0.145834
0.0208323 3 -0.0208333
0.854169 0 0.0208324
0.854169 0 0.187499
0.854169 0 0.354166
0.854169 0 0.520833
0.854169 0 0.687501
0.854169 0 0.854168
0.854169 0 1.02083
0.779041 0.148409 -0.0225414
0.798774 0.167975 0.137736
0.823309 0.168325 0.29846
0.848952 0.165733 0.462943
0.875578 0.164799 0.630796
0.902605 0.168578 0.798156
0.929938 0.190345 0.954982
0.684477 0.303107 -0.056382
0.728695 0.333202 0.0947659
0.779965 0.336759 0.250758
0.834041 0.331826 0.409701
0.889277 0.328482 0.56982
0.944897 0.33536 0.727137
0.999125 0.3686 0.875666
0.578144 0.463155 -0.0772989
0.649138 0.49726 0.0618181
0.727742 0.503617 0.207301
0.809812 0.498426 0.355613
0.892852 0.493926 0.503181
0.975385 0.501278 0.645811
1.05764 0.536209 0.779063
0.470228 0.628023 -0.0804989
0.565647 0.66195 0.042891
0.669213 0.669273 0.172347
0.77719 0.66449 0.304249
0.886036 0.659731 0.4348
0.992856 0.666957 0.560183
1.09718 0.700847 0.676396
0.368842 0.794609 -0.0645862
0.483646 0.827648 0.0407924
0.607672 0.834747 0.1499
0.736749 0.830054 0.260697
0.866663 0.825229 0.37018
0.993805 0.832197 0.475045
1.11651 0.866031 0.571838
0.269829 0.960063 -0.0309599
0.40138 0.993892 0.0521831
0.542798 1.00109 0.137682
0.68911 0.996171 0.224199
0.83595 0.991157 0.309239
0.979462 0.997883 0.389781
1.11795 1.0314 0.462302
0.177621 1.12679 0.018508
0.322315 1.16027 0.0765496
0.477034 1.16742 0.1358
0.636769 1.16236 0.195344
0.796547 1.15701 0.253295
0.952162 1.16332 0.307355
1.10117 1.19614 0.354428
0.0987611 1.29465 0.0825172
0.251402 1.32692 0.114968
0.41378 1.33348 0.14634
0.581176 1.32822 0.176915
0.748521 1.32266 0.205932
0.911188 1.32865 0.232189
1.06607 1.3613 0.253329
0.032249 1.46199 0.160425
0.18808 1.49418 0.165684
0.353117 1.50034 0.168146
0.522892 1.49466 0.169017
0.692425 1.48882 0.168263
0.856944 1.49447 0.165317
1.01331 1.52663 0.158376
-0.0205933 1.62976 0.248161
0.133751 1.66178 0.225668
0.296869 1.66769 0.199171
0.464499 1.6615 0.170362
0.631504 1.65527 0.139971
0.793102 1.66058 0.108268
0.94583 1.69204 0.073771
-0.0556234 1.79806 0.342385
0.0926641 1.82935 0.293873
0.24863 1.83479 0.239471
0.408522 1.82825 0.181837
0.567645 1.82161 0.122801
0.721357 1.82666 0.0635953
0.865938 1.85819 0.0038053
-0.0725182 1.96559 0.44374
0.065068 1.99688 0.369895
0.208907 2.00211 0.288844
0.355765 1.99548 0.204155
0.501536 1.98855 0.118257
0.641953 1.99326 0.033042
0.773511 2.02451 -0.0516987
-0.0723285 2.13365 0.546793
0.049993 2.1647 0.449302
0.17756 2.16983 0.344168
0.307501 2.16305 0.235043
0.436194 2.15592 0.124995
0.5595 2.16039 0.0164275
0.67372 2.19075 -0.0904979
-0.0540075 2.30157 0.645452
0.0499675 2.33245 0.52897
0.157195 2.33738 0.403533
0.266093 2.33049 0.273532
0.373872 2.3231 0.14267
0.476864 2.32739 0.0141671
0.571439 2.35811 -0.110228
-0.015405 2.46725 0.74328
0.0663972 2.49934 0.610321
0.149413 2.50485 0.46741
0.2328 2.49849 0.32023
0.314903 2.49114 0.172983
0.393298 2.49465 0.0286904
0.463821 2.5255 -0.110948
0.0407615 2.63375 0.835696
0.0963442 2.66557 0.688403
0.152561 2.67132 0.530847
0.208409 2.66674 0.370877
0.262724 2.66024 0.212746
0.313981 2.66196 0.0578662
0.357804 2.68989 -0.0933411
0.111718 2.81153 0.913621
0.13842 2.83184 0.757533
0.166014 2.83519 0.589533
0.193336 2.83344 0.421718
0.219632 2.83042 0.257712
0.243873 2.8302 0.098193
0.263056 2.84724 -0.0609525
0.187499 3 0.979169
0.187499 3 0.812502
0.187499 3 0.645835
0.187499 3 0.479168
0.187499 3 0.312501
0.187499 3 0.145834
0.187499 3 -0.0208333
0.687502 0 0.0208323
0.687502 0 0.187499
0.687502 0 0.354166
0.687502 0 0.520833
0.687502 0 0.687501
0.687502 0 0.854168
0.687502 0 1.02083
0.603561 0.150921 -0.000563628
0.630664 0.163525 0.165603
0.657778 0.165962 0.328349
0.684874 0.166207 0.492306
0.712816 0.166594 0.657589
0.742457 0.168781 0.822276
0.772366 0.180509 0.983393
0.519453 0.308242 -0.00684863
0.57058 0.326634 0.151093
0.6236 0.331863 0.307519
0.677834 0.332477 0.464783
0.73325 0.333296 0.622144
0.789871 0.33888 0.778021
0.845688 0.357389 0.933314
0.428407 0.471288 -0.000265366
0.506061 0.491529 0.145451
0.585048 0.49822 0.290741
0.665964 0.499124 0.436614
0.748129 0.500093 0.58162
0.830893 0.506987 0.723931
0.91433 0.527902 0.866317
0.337894 0.637118 0.0216886
0.440133 0.65727 0.150808
0.543667 0.664287 0.280076
0.64966 0.665505 0.409535
0.756856 0.666696 0.537757
0.863774 0.674051 0.663099
0.971263 0.695092 0.787989
0.255705 0.803425 0.059426
0.37859 0.823409 0.16872
0.502741 0.830411 0.277662
0.629595 0.831625 0.386363
0.757422 0.832654 0.493669
0.884613 0.839835 0.598329
1.01205 0.860909 0.702747
0.180597 0.969762 0.110557
0.320789 0.990143 0.196406
0.462212 0.997282 0.2817
0.606016 0.998403 0.366504
0.750546 0.999238 0.449843
0.894126 1.0061 0.530377
1.0383 1.02676 0.610238
0.115097 1.1369 0.173205
0.268426 1.15689 0.232831
0.42302 1.16389 0.292069
0.579952 1.16485 0.350494
0.737155 1.16548 0.407186
0.892907 1.17195 0.461324
1.04892 1.19218 0.514444
0.0639794 1.30458 0.246062
0.22533 1.32362 0.278175
0.387626 1.33014 0.309593
0.552101 1.33078 0.339627
0.716687 1.33115 0.367901
0.879398 1.3373 0.394035
1.04216 1.35728 0.419466
0.0265628 1.47224 0.327239
0.190963 1.49104 0.330713
0.355957 1.49714 0.333104
0.522837 1.49734 0.333845
0.689639 1.49737 0.332828
0.854223 1.5031 0.32993
1.01911 1.52256 0.326179
0.00300674 1.64007 0.413321
0.165493 1.65857 0.387789
0.328613 1.66444 0.361189
0.493456 1.66418 0.332707
0.657813 1.66385 0.302514
0.819711 1.66918 0.270783
0.981342 1.68809 0.238036
-0.0036404 1.80771 0.501528
0.152036 1.8257 0.448218
0.308096 1.8311 0.393706
0.465291 1.83065 0.336906
0.621772 1.83003 0.278472
0.775547 1.83511 0.219123
0.928999 1.8539 0.159038
0.00641037 1.97528 0.590592
0.150536 1.99313 0.510832
0.294352 1.99817 0.429898
0.438749 1.99756 0.346571
0.582019 1.99673 0.261778
0.722496 2.00165 0.17635
0.862951 2.01997 0.0900969
0.0311203 2.14301 0.676962
0.158942 2.16086 0.572997
0.286451 2.16587 0.467933
0.41434 2.16495 0.360573
0.540931 2.16374 0.251964
0.66449 2.16845 0.143079
0.787312 2.18624 0.0332622
0.0709187 2.30993 0.756752
0.178892 2.32796 0.632237
0.286132 2.33296 0.506606
0.393297 2.33205 0.378583
0.499222 2.33049 0.249476
0.602285 2.335 0.120713
0.704277 2.35313 -0.00845272
0.127081 2.47667 0.830261
0.211259 2.49501 0.688603
0.294172 2.50019 0.545914
0.376352 2.4995 0.401079
0.457238 2.49812 0.255615
0.535815 2.50219 0.111044
0.613259 2.52025 -0.0341602
0.194359 2.64646 0.894272
0.251704 2.66305 0.739606
0.308506 2.66742 0.583237
[...]
POINT_DATA 6253
SCALARS scalars float 1
LOOKUP_TABLE default
1.02105 0.874507 0.773365 0.736572 0.773365 0.874505 1.02105 0.940476 0.797075 0.703799 0.670949 0.710422 0.811802 0.9403 0.83672 0.711087 0.631715 0.606233 0.643706 0.733117 0.84263 0.725026 0.616154 0.549988 0.531305 0.565816 0.64173 0.731271 0.611176 0.519132 0.464591 0.451546 0.482843 0.546696 0.619071 0.500413 0.422458 0.378938 0.370097 0.397756 0.450689 0.507336 0.381187 0.32033 0.289147 0.28459 0.307809 0.348333 0.385634 0.259276 0.216572 0.197696 0.197727 0.21697 0.244651 0.262561 0.141272 0.115356 0.107499 0.111078 0.127259 0.143192 0.141817 0.0332317 0.0287859 0.0225345 0.0240355 0.0447766 0.0515632 0.0183039 0.111313 0.101596 0.0810286 0.0664052 0.0732139 0.0875732 0.110455 0.227862 0.201831 0.169874 0.15185 0.159365 0.185344 0.230228 0.347854 0.303436 0.258938 0.236959 0.248509 0.287293 0.352099 0.465883 0.403053 0.34665 0.320437 0.336316 0.38789 0.471949 0.575082 0.497186 0.429853 0.399823 0.419932 0.482911 0.581646 0.686345 0.591345 0.511048 0.477096 0.502258 0.576783 0.691841 0.797037 0.681988 0.587674 0.5496 0.580669 0.668289 0.801621 0.894793 0.760982 0.654595 0.613394 0.649696 0.750045 0.899901 0.979391 0.825486 0.717467 0.677646 0.717467 0.825485 0.979389 0.866529 0.687818 0.553558 0.500869 0.553557 0.687817 0.866527 0.801897 0.632771 0.507394 0.457764 0.508982 0.63528 0.791776 0.720536 0.566609 0.454492 0.413099 0.460555 0.57147 0.709876 0.628591 0.49374 0.396513 0.362887 0.405511 0.499759 0.616168 0.532634 0.417765 0.335938 0.309464 0.346506 0.42462 0.520035 0.437061 0.341105 0.274854 0.25476 0.28545 0.347635 0.422856 0.336836 0.261216 0.211463 0.197705 0.221499 0.266717 0.319842 0.234713 0.179968 0.14698 0.139809 0.156418 0.184186 0.215312 0.135392 0.0994678 0.0829749 0.0819801 0.09141 0.101865 0.112506 0.0502399 0.0222117 0.0198415 0.0236236 0.0281235 0.024288 0.0309018 0.0918023 0.0677381 0.0488587 0.0360642 0.0455951 0.0711766 0.11049 0.187657 0.14722 0.111702 0.0928664 0.108936 0.152339 0.212401 0.288466 0.22723 0.174395 0.149096 0.172461 0.233511 0.315565 0.388352 0.305776 0.236183 0.204314 0.234456 0.312404 0.41614 0.482868 0.380636 0.295206 0.257179 0.293954 0.387765 0.510832 0.577748 0.454844 0.352558 0.308188 0.351932 0.461192 0.604324 0.671078 0.526455 0.406605 0.355987 0.406613 0.530648 0.693223 0.755577 0.591543 0.454769 0.398866 0.456221 0.593433 0.771421 0.833856 0.646171 0.500869 0.441943 0.500868 0.64617 0.833855 0.755193 0.540867 0.354781 0.265167 0.35478 0.540865 0.755191 0.689943 0.493393 0.324484 0.243825 0.327524 0.497321 0.688902 0.621437 0.443173 0.291416 0.221144 0.296387 0.446841 0.619974 0.543732 0.388021 0.255299 0.195478 0.261309 0.390668 0.540545 0.460617 0.328919 0.216984 0.167947 0.223435 0.33125 0.456449 0.375905 0.268528 0.178345 0.140035 0.18424 0.26999 0.370637 0.288373 0.206398 0.138864 0.111095 0.143565 0.206299 0.280819 0.199435 0.143357 0.0987634 0.0817929 0.102099 0.141275 0.189329 0.111966 0.0811059 0.0593423 0.0525418 0.0608417 0.0763047 0.098845 0.0388991 0.0260264 0.0228049 0.0229965 0.0231286 0.0213914 0.0304193 0.0843474 0.0550669 0.0283399 0.00702867 0.0321889 0.0640662 0.0994411 0.170173 0.116064 0.0654732 0.0349948 0.0709663 0.12801 0.189322 0.258523 0.178363 0.104152 0.0627126 0.110888 0.192175 0.279902 0.345845 0.239858 0.142533 0.0899029 0.149797 0.254378 0.368323 0.429955 0.299202 0.179587 0.115908 0.187291 0.313996 0.452395 0.51345 0.358092 0.216158 0.140992 0.223392 0.371396 0.533882 0.594 0.415092 0.251135 0.164299 0.256568 0.424287 0.609294 0.665319 0.467708 0.283235 0.185451 0.28657 0.471504 0.675739 0.736571 0.514547 0.313195 0.20624 0.313194 0.514546 0.73657 0.707722 0.472326 0.237538 0.0294642 0.237536 0.472324 0.70772 0.640193 0.427036 0.214367 0.0291748 0.218995 0.43153 0.645963 0.574639 0.381208 0.190857 0.0287259 0.197979 0.388518 0.582314 0.500601 0.332107 0.165928 0.027753 0.174433 0.34068 0.510141 0.421595 0.279529 0.139524 0.0265314 0.148619 0.288884 0.431766 0.340691 0.225861 0.113078 0.0254923 0.121387 0.234609 0.350711 0.257958 0.171465 0.0868634 0.0244241 0.0932046 0.178227 0.265989 0.173592 0.116219 0.0605916 0.0235673 0.0648569 0.120776 0.179368 0.0895277 0.0620585 0.0364475 0.0229934 0.0377949 0.0632334 0.0925575 0.0237789 0.0251207 0.0234987 0.0226904 0.0219352 0.0201384 0.0214431 0.0895427 0.0620859 0.0359414 0.022854 0.0383462 0.0637641 0.09187 0.173661 0.116396 0.0601999 0.0235196 0.0653884 0.121074 0.178475 0.257923 0.171664 0.0865171 0.024372 0.0937838 0.178682 0.265218 0.34074 0.226086 0.112775 0.025197 0.121955 0.235089 0.349961 0.421643 0.279765 0.139137 0.026307 0.149019 0.289102 0.430745 0.500448 0.332096 0.165381 0.0274389 0.174883 0.34108 0.50912 0.574119 0.381447 0.190505 0.0284604 0.198424 0.389082 0.581528 0.639934 0.427058 0.214369 0.0291074 0.218983 0.431849 0.644798 0.707722 0.472326 0.237538 0.0294621 0.237536 0.472324 0.70772 0.736571 0.514547 0.313194 0.206238 0.313192 0.514544 0.736569 0.665762 0.467644 0.283365 0.185563 0.28659 0.471182 0.676308 0.594185 0.414588 0.250989 0.164213 0.256287 0.42402 0.609879 0.513777 0.358202 0.216378 0.140746 0.22282 0.371167 0.534846 0.43006 0.299169 0.179885 0.115723 0.186859 0.313946 0.453354 0.345495 0.239359 0.14257 0.0898695 0.149463 0.25421 0.36913 0.258623 0.178395 0.10464 0.0628842 0.110309 0.191657 0.280652 0.170378 0.116203 0.066035 0.0350724 0.0703631 0.127651 0.190137 0.0842649 0.0548897 0.0286682 0.0071229 0.0316828 0.0638301 0.100015 0.0386899 0.0258747 0.0226255 0.0227213 0.0228124 0.0211881 0.0293207 0.111803 0.0807925 0.0587209 0.0520979 0.0609844 0.0766737 0.0977407 0.199698 0.143585 0.0984555 0.0814615 0.102156 0.141322 0.188011 0.288324 0.206502 0.138544 0.110713 0.143449 0.206376 0.279645 0.375745 0.268312 0.177781 0.1394 0.184256 0.27033 0.369547 0.460973 0.329075 0.216527 0.167409 0.223233 0.331275 0.455044 0.543937 0.388128 0.254897 0.194939 0.26111 0.390836 0.539222 0.621044 0.442833 0.29074 0.220517 0.296382 0.447107 0.618805 0.689698 0.49334 0.324253 0.243506 0.327218 0.497262 0.687628 0.755192 0.540866 0.354779 0.265165 0.354778 0.540864 0.75519 0.833855 0.64617 0.500867 0.441941 0.500866 0.646168 0.833853 0.756077 0.591503 0.454928 0.399149 0.456661 0.593593 0.771347 0.670182 0.52561 0.40646 0.356261 0.407119 0.53142 0.694088 0.577658 0.454409 0.352592 0.308353 0.351964 0.461584 0.605253 0.483095 0.380588 0.295379 0.257308 0.293998 0.387951 0.511535 0.387649 0.305144 0.23615 0.204642 0.234836 0.312872 0.417024 0.288176 0.227084 0.174856 0.149689 0.172626 0.23366 0.316573 0.187846 0.147501 0.112292 0.0933979 0.10898 0.152283 0.213248 0.0914216 0.0677058 0.0491661 0.0365958 0.045914 0.0714719 0.111233 0.0500242 0.0225098 0.0196588 0.0230157 0.027648 0.0239875 0.0298931 0.135283 0.0992043 0.0822957 0.0812064 0.0910755 0.101819 0.111352 0.235101 0.180165 0.146614 0.139168 0.155933 0.183814 0.21399 0.336658 0.261044 0.210926 0.196871 0.220856 0.26634 0.318774 0.436869 0.340428 0.274016 0.253764 0.284888 0.347531 0.421817 0.533331 0.417602 0.335379 0.308631 0.34583 0.424278 0.518632 0.628957 0.493536 0.395997 0.362116 0.404839 0.499574 0.615043 0.720639 0.565614 0.453584 0.412167 0.46001 0.571508 0.708602 0.80093 0.63258 0.506743 0.456935 0.508298 0.634991 0.790788 0.866528 0.687817 0.553556 0.500867 0.553555 0.687815 0.866526 0.979389 0.825484 0.717466 0.677643 0.717465 0.825483 0.979388 0.895319 0.759875 0.653806 0.612825 0.649337 0.749565 0.898405 0.796042 0.680462 0.58655 0.549079 0.580576 0.668432 0.800739 0.685715 0.589841 0.510142 0.476577 0.501828 0.576741 0.69226 0.575266 0.496605 0.429198 0.399368 0.419451 0.482519 0.581951 0.464377 0.401809 0.345758 0.320133 0.336183 0.387973 0.472562 0.346507 0.302202 0.258372 0.236894 0.248429 0.287603 0.353235 0.227568 0.201324 0.169577 0.15177 0.159105 0.185298 0.231148 0.110064 0.10091 0.0804885 0.0661209 0.0729824 0.0876303 0.11124 0.0334466 0.0300186 0.0232971 0.0238069 0.044331 0.0510038 0.0177537 0.141683 0.11616 0.107885 0.1108 0.12677 0.142413 0.140469 0.260258 0.2176 0.198432 0.197582 0.216435 0.24396 0.261451 0.381468 0.321067 0.289598 0.284351 0.307289 0.347695 0.384903 0.500738 0.422736 0.37909 0.369688 0.397012 0.449671 0.505823 0.612735 0.519846 0.465227 0.451367 0.482118 0.54558 0.617148 0.726242 0.617065 0.55062 0.531407 0.565479 0.641017 0.730281 0.838233 0.711533 0.632376 0.606254 0.643467 0.732707 0.841012 0.940736 0.798341 0.704887 0.671737 0.710294 0.811343 0.940163 1.02105 0.874505 0.773364 0.73657 0.773363 0.874504 1.02105 0.939584 0.854424 0.943272 0.982933 0.908696 0.902877 0.835908 0.863331 0.823312 0.837103 0.78622 0.87018 0.777843 0.74762 0.773366 0.745584 0.714109 0.713326 0.661993 0.712612 0.817031 0.779287 0.738034 0.744742 0.683399 0.652299 0.662096 0.63384 0.613083 0.588971 0.605418 0.563073 0.531239 0.629845 0.745941 0.712239 0.704021 0.679278 0.602096 0.574538 0.618721 0.590754 0.514548 0.492524 0.564533 0.470258 0.479589 0.629844 0.74594 0.714963 0.742917 0.682076 0.602447 0.576066 0.662095 0.634579 0.514547 0.492561 0.6082 0.471029 0.531745 0.712611 0.81703 0.788563 0.845467 0.754655 0.685656 0.657864 0.777841 0.750321 0.613082 0.589842 0.720275 0.565535 0.663543 0.854422 0.943271 0.915346 0.984138 0.874838 0.825012 0.789176 0.939582 0.902355 0.773364 0.745358 0.859761 0.712352 0.828924 0.888641 0.825062 0.815623 0.755351 0.767532 0.745199 0.761201 0.702843 0.778756 0.675973 0.675983 0.637349 0.638762 0.599808 0.706888 0.669014 0.666353 0.618653 0.583008 0.573676 0.533107 0.541627 0.503598 0.481135 0.647262 0.639491 0.611865 0.545977 0.516128 0.536946 0.446523 0.508669 0.422656 0.436009 0.651211 0.677911 0.617215 0.548903 0.520735 0.579763 0.449195 0.550112 0.426266 0.485725 0.720562 0.773429 0.682864 0.626714 0.594196 0.684901 0.538785 0.648069 0.510454 0.604303 0.831965 0.890773 0.786578 0.749058 0.7078 0.816249 0.675602 0.769389 0.638601 0.750246 0.781392 0.728334 0.716569 0.664089 0.664926 0.657081 0.674573 0.610685 0.677453 0.59604 0.597857 0.554178 0.556832 0.530212 0.623168 0.591581 0.57848 0.545697 0.507022 0.506998 0.470969 0.472036 0.438719 0.425639 0.5746 0.569369 0.534566 0.484286 0.451146 0.477901 0.396207 0.446262 0.369864 0.388385 0.581136 0.605379 0.542213 0.489961 0.458022 0.517855 0.401253 0.484194 0.375466 0.433817 0.642704 0.688064 0.599559 0.558862 0.521957 0.608778 0.480037 0.56743 0.448251 0.536344 0.737806 0.78755 0.686313 0.663242 0.617192 0.719592 0.597941 0.667893 0.556375 0.663031 0.66843 0.625275 0.612464 0.567802 0.560247 0.563363 0.580687 0.515783 0.573037 0.511075 0.513986 0.468299 0.471382 0.455791 0.533532 0.507595 0.487807 0.467917 0.428319 0.435648 0.404748 0.399616 0.371241 0.366328 0.494578 0.491602 0.452786 0.417267 0.382857 0.413258 0.341994 0.379971 0.314303 0.336399 0.502871 0.524575 0.461891 0.424635 0.390883 0.449083 0.348299 0.413452 0.320859 0.376383 0.556338 0.594552 0.511529 0.483853 0.445211 0.52555 0.415438 0.482722 0.382121 0.462559 0.635613 0.675932 0.583112 0.570705 0.523405 0.617005 0.514098 0.564298 0.471062 0.568494 0.555921 0.521693 0.508185 0.470918 0.456253 0.468661 0.485077 0.420922 0.469356 0.424726 0.428341 0.381284 0.385261 0.379583 0.442837 0.421957 0.397157 0.388821 0.348928 0.362621 0.337028 0.325946 0.30306 0.305568 0.412088 0.410809 0.369902 0.348067 0.313071 0.345899 0.286031 0.311595 0.257822 0.282286 0.42122 0.440361 0.379479 0.356171 0.321382 0.377064 0.292789 0.340222 0.26449 0.316252 0.467171 0.498968 0.42175 0.405917 0.366176 0.439956 0.348275 0.396102 0.313944 0.386541 0.532184 0.563858 0.479437 0.476327 0.42803 0.513462 0.428141 0.459567 0.38421 0.472013 0.440743 0.415572 0.401077 0.371525 0.34601 0.371568 0.387083 0.321378 0.360501 0.336121 0.340456 0.290791 0.295517 0.301307 0.349962 0.334143 0.302115 0.307944 0.266337 0.287656 0.267574 0.249568 0.232328 0.24329 0.327297 0.327216 0.28332 0.276956 0.240639 0.276158 0.228435 0.240512 0.199226 0.226362 0.336632 0.352726 0.292895 0.285126 0.248788 0.302156 0.235084 0.263628 0.205583 0.253716 0.374682 0.399709 0.326638 0.324923 0.283147 0.351072 0.278431 0.304906 0.242451 0.307573 0.424753 0.446971 0.368239 0.377984 0.326962 0.404768 0.338843 0.347967 0.292593 0.371753 0.319998 0.305225 0.28948 0.268386 0.233744 0.270816 0.285679 0.219914 0.249404 0.244575 0.249592 0.198791 0.204081 0.220615 0.253813 0.243371 0.205394 0.224445 0.182384 0.210463 0.196099 0.171976 0.160406 0.179235 0.239693 0.240904 0.195164 0.203809 0.16708 0.204309 0.169264 0.168285 0.139692 0.168752 0.249181 0.262186 0.205138 0.211797 0.175117 0.22464 0.175528 0.185706 0.14569 0.189003 0.278698 0.296533 0.230437 0.240876 0.198629 0.258541 0.205993 0.211827 0.169547 0.225609 0.312459 0.324572 0.255449 0.275689 0.22402 0.291885 0.246166 0.234609 0.199183 0.267897 0.199776 0.195175 0.178367 0.165694 0.123998 0.169959 0.184625 0.119698 0.140561 0.152832 0.158635 0.107282 0.113844 0.139707 0.157915 0.152439 0.110649 0.140711 0.0990056 0.13299 0.124452 0.0945694 0.0889994 0.114982 0.151653 0.154106 0.107431 0.130206 0.0935272 0.132035 0.109905 0.095909 0.0803875 0.110855 0.161458 0.171683 0.11788 0.138053 0.101456 0.146747 0.11566 0.108043 0.0858077 0.123865 0.182986 0.193658 0.135975 0.156508 0.114711 0.165668 0.133112 0.119385 0.0968266 0.143071 0.200421 0.202561 0.144681 0.173065 0.121662 0.179351 0.152883 0.122391 0.10628 0.163928 0.0817398 0.0882174 0.0692117 0.0657126 0.0262273 0.0700261 0.0876018 0.0251595 0.0441769 0.0615429 0.0692497 0.019801 0.0312027 0.059223 0.0642427 0.0623175 0.0274264 0.0574631 0.0192552 0.0555707 0.0530393 0.01882 0.019706 0.0507679 0.0632343 0.0668405 0.0190906 0.056307 0.019745 0.05943 0.050327 0.0234738 0.0210341 0.0526386 0.0743031 0.0829213 0.0343225 0.0643775 0.0292122 0.0695416 0.0555909 0.0340543 0.0262159 0.0589386 0.0900257 0.0934208 0.0510093 0.0731821 0.0358613 0.0736273 0.0606948 0.032276 0.027685 0.0609432 0.0896717 0.0792659 0.040713 0.0700461 0.0222409 0.0662957 0.0600193 0.0192025 0.0210851 0.0626955 0.0547901 0.0512755 0.0548308 0.0534095 0.107718 0.040972 0.0523614 0.0891129 0.098037 0.0368367 0.0379968 0.0810423 0.0786109 0.0294097 0.0468765 0.0375 0.0915477 0.0326985 0.0730608 0.0266539 0.0245801 0.0639413 0.0584242 0.0183302 0.027177 0.0239517 0.0714255 0.0197883 0.0560384 0.0164254 0.0127541 0.0514795 0.0408487 0.0086183 0.0297108 0.0390415 0.0676216 0.0195937 0.0520584 0.0259644 0.0120458 0.057816 0.0380123 0.0184755 0.0459788 0.0481688 0.0803736 0.0313488 0.0663956 0.0352239 0.0254137 0.0769991 0.0573572 0.0324983 0.0455192 0.0480802 0.0957051 0.0403282 0.090916 0.0557279 0.0429072 0.11181 0.0883835 0.0605855 0.169768 0.149959 0.162497 0.151591 0.216651 0.138389 0.138711 0.188211 0.204232 0.12644 0.122859 0.171518 0.167331 0.107456 0.138203 0.125453 0.185009 0.11413 0.155259 0.102353 0.0938574 0.140141 0.128768 0.0803024 0.114723 0.109535 0.158032 0.0924838 0.128448 0.0872915 0.0701408 0.122745 0.0990143 0.0646211 0.110118 0.115762 0.152674 0.0881921 0.12411 0.095341 0.067322 0.133312 0.0965519 0.077152 0.124759 0.135479 0.170557 0.106891 0.148109 0.122279 0.0926843 0.167905 0.128465 0.111553 0.149322 0.170136 0.204269 0.141386 0.192241 0.166924 0.133966 0.223053 0.18025 0.160723 0.28854 0.258586 0.27231 0.252764 0.326938 0.23811 0.238098 0.288353 0.314025 0.216935 0.212708 0.262092 0.257557 0.187349 0.232297 0.214571 0.2793 0.19635 0.237474 0.17825 0.164275 0.215886 0.19912 0.143175 0.201106 0.194853 0.244083 0.164522 0.200215 0.1581 0.128096 0.193206 0.156746 0.121165 0.196108 0.2042 0.23873 0.16038 0.196123 0.171497 0.125812 0.209482 0.154808 0.140823 0.218098 0.236297 0.265013 0.189588 0.230951 0.213756 0.164205 0.259422 0.199889 0.192943 0.259913 0.291279 0.315712 0.243085 0.2938 0.278999 0.22618 0.335035 0.272268 0.263775 0.407724 0.368003 0.381763 0.353571 0.434921 0.337456 0.338808 0.386422 0.422155 0.306807 0.302564 0.350718 0.346405 0.266777 0.326081 0.303097 0.372116 0.27798 0.318082 0.253517 0.234223 0.290296 0.268317 0.205546 0.286625 0.279192 0.328675 0.235794 0.27071 0.228027 0.185517 0.262367 0.213575 0.176984 0.281608 0.292805 0.323305 0.231833 0.26679 0.247105 0.183575 0.284147 0.211819 0.20374 0.312204 0.337754 0.358193 0.271803 0.312109 0.304519 0.234881 0.348779 0.269439 0.273175 0.370711 0.412212 0.425373 0.343719 0.392985 0.390194 0.317179 0.44431 0.361878 0.365815 0.521282 0.472847 0.486453 0.450301 0.536783 0.432916 0.435991 0.479548 0.524642 0.393398 0.389201 0.435512 0.431101 0.343415 0.416433 0.38859 0.460128 0.356796 0.395092 0.326362 0.301822 0.361581 0.334491 0.26595 0.369208 0.360701 0.409009 0.304818 0.338113 0.295867 0.241118 0.328701 0.267976 0.231075 0.364324 0.378619 0.403801 0.301106 0.334475 0.320416 0.239456 0.355838 0.266499 0.264556 0.403217 0.435699 0.44662 0.351263 0.389647 0.391904 0.302989 0.433962 0.336046 0.350346 0.476756 0.526944 0.527548 0.43993 0.486408 0.495466 0.404348 0.546539 0.446674 0.463331 0.631746 0.575175 0.588517 0.544437 0.639026 0.525781 0.530766 0.572286 0.627028 0.477442 0.473434 0.51893 0.51514 0.417888 0.503882 0.470927 0.546858 0.432881 0.470298 0.396306 0.367191 0.430423 0.399182 0.32412 0.448491 0.439042 0.487118 0.370932 0.403056 0.360785 0.294477 0.392576 0.320384 0.282924 0.443934 0.461501 0.482627 0.367563 0.400127 0.390874 0.293126 0.425662 0.31951 0.323133 0.491077 0.530121 0.533987 0.427698 0.465364 0.475921 0.368532 0.517246 0.400884 0.424703 0.578728 0.637203 0.629041 0.532654 0.578206 0.597531 0.488298 0.64791 0.529511 0.55776 0.742577 0.677328 0.689793 0.636891 0.738764 0.617576 0.624954 0.662671 0.727708 0.559695 0.556601 0.599158 0.597078 0.490882 0.588728 0.550155 0.62948 0.506527 0.541734 0.463412 0.430648 0.495102 0.46096 0.38001 0.524513 0.514117 0.560443 0.434063 0.463892 0.422859 0.345531 0.452454 0.369501 0.332597 0.520736 0.541831 0.557293 0.431544 0.462301 0.459024 0.344925 0.492115 0.369462 0.37968 0.577051 0.622832 0.61868 0.502025 0.53809 0.557874 0.43195 0.597308 0.462381 0.496505 0.679672 0.7475 0.728789 0.623453 0.666796 0.698494 0.569583 0.746108 0.608045 0.649833 0.847198 0.774806 0.78429 0.72223 0.82777 0.704236 0.714126 0.744451 0.818905 0.63647 0.635574 0.672202 0.672785 0.559412 0.666541 0.622123 0.701825 0.574531 0.605908 0.524766 0.489599 0.553178 0.516819 0.431246 0.593346 0.582099 0.624889 0.491715 0.518572 0.479779 0.392173 0.506447 0.413523 0.378066 0.590572 0.615132 0.622863 0.49051 0.518642 0.5221 0.392696 0.552147 0.414585 0.431887 0.6563 0.708699 0.693841 0.571043 0.604734 0.633697 0.49079 0.670316 0.518403 0.562271 0.773881 0.850864 0.819032 0.707108 0.747283 0.791157 0.643722 0.83492 0.678223 0.733937 0.941573 0.863067 0.868978 0.796501 0.898013 0.782675 0.796444 0.812769 0.901871 0.703844 0.708129 0.731842 0.736572 0.620725 0.734626 0.687113 0.764333 0.63499 0.662096 0.580195 0.5424 0.607393 0.565963 0.478231 0.656652 0.645345 0.687817 0.544984 0.572065 0.532974 0.43566 0.559794 0.457387 0.420778 0.654339 0.681801 0.687817 0.545679 0.572065 0.581347 0.4368 0.607392 0.457386 0.480149 0.726074 0.78403 0.764332 0.635421 0.662095 0.703964 0.543909 0.731841 0.565962 0.621445 0.853958 0.936897 0.898012 0.781106 0.812768 0.870058 0.707509 0.90187 0.73657 0.80381 0.80418 0.7028 0.773321 0.675718 0.724136 0.644591 0.738951 0.607393 0.58344 0.646172 0.618862 0.557003 0.589643 0.517781 0.521252 0.500375 0.477691 0.449732 0.431476 0.441944 0.423169 0.41229 0.403638 0.339963 0.400739 0.383984 0.36685 0.383018 0.366912 0.290177 0.278075 0.351043 0.26595 0.254658 0.400739 0.384411 0.36818 0.449731 0.432298 0.290176 0.278976 0.414616 0.267727 0.341726 0.521251 0.502032 0.4812 0.607391 0.585179 0.441942 0.425418 0.560622 0.4076 0.520558 0.702798 0.676555 0.645364 0.804178 0.769835 0.646169 0.620901 0.732859 0.59208 0.722126 0.703376 0.612702 0.656357 0.579625 0.665421 0.528662 0.560418 0.499636 0.530139 0.468685 0.453435 0.428174 0.39096 0.382969 0.369414 0.362084 0.308072 0.348807 0.329994 0.334093 0.252652 0.316798 0.239642 0.232711 0.351009 0.333243 0.394786 0.255465 0.374746 0.243049 0.312457 0.457732 0.43364 0.532008 0.387812 0.503171 0.367277 0.47