# vtk DataFile Version 5.1
vtk output
ASCII

DATASET UNSTRUCTURED_GRID
POINTS 637 float
-0.999999 0 0
-0.758206 0.101737 0.110304
-0.438172 0.136917 0.137406
-0.0879791 0.148524 0.142687
0.269271 0.151317 0.145097
0.630043 0.152591 0.145543
0.994258 0.151583 0.14448
1.35301 0.150223 0.14462
1.7045 0.148895 0.142833
2.0525 0.146228 0.140445
2.39122 0.13736 0.135366
2.71101 0.111499 0.112574
3 0 0
-0.999999 0.166667 0
-0.770944 0.233481 0.105356
-0.449451 0.257489 0.137999
-0.0943122 0.266111 0.144203
0.265304 0.269003 0.146108
0.628554 0.269642 0.14672
0.99352 0.268579 0.145994
1.35309 0.26816 0.146018
1.70602 0.267072 0.144814
2.05544 0.265262 0.142767
2.39748 0.259272 0.137321
2.72279 0.235815 0.115833
3 0.166667 0
-0.999999 0.333333 0
-0.772542 0.366754 0.106619
-0.454502 0.378507 0.140848
-0.0985028 0.383811 0.146834
0.261442 0.385529 0.149117
0.62771 0.38611 0.148724
0.992975 0.38551 0.147784
1.3537 0.38572 0.147746
1.70866 0.385161 0.147223
2.05931 0.383885 0.146375
2.40271 0.380045 0.142181
2.72656 0.367437 0.119589
3 0.333333 0
-0.999999 0.5 0
-0.772257 0.501801 0.107551
-0.455628 0.501329 0.142558
-0.100432 0.501764 0.149272
0.259931 0.502293 0.151362
0.62772 0.502263 0.150457
0.992418 0.50242 0.149346
1.35359 0.502634 0.149901
1.71028 0.502756 0.150043
2.06216 0.502582 0.14988
2.40521 0.502425 0.145913
2.72821 0.502476 0.121215
3 0.5 0
-0.999999 0.666667 0
-0.772243 0.637945 0.106453
-0.454822 0.625139 0.141763
-0.0993193 0.620773 0.148802
0.261474 0.61931 0.15141
0.627294 0.618181 0.151465
0.992442 0.618955 0.150332
1.3541 0.619372 0.151109
1.70993 0.620568 0.15165
2.06253 0.622194 0.151315
2.40575 0.626538 0.146642
2.72898 0.639019 0.119869
3 0.666667 0
-0.999999 0.833333 0
-0.771652 0.774866 0.102687
-0.451084 0.749583 0.137566
-0.0960506 0.739596 0.146433
0.264765 0.735813 0.150495
0.627877 0.734309 0.151261
0.99269 0.735176 0.150366
1.35346 0.736783 0.150562
1.70833 0.739158 0.151046
2.0608 0.742955 0.150125
2.40448 0.751706 0.144749
2.72864 0.775342 0.116847
3 0.833333 0
-0.999999 1 0
-0.76242 0.907779 0.0984534
-0.441193 0.871962 0.132456
-0.0899589 0.857415 0.143504
0.266799 0.852546 0.149065
0.628885 0.851006 0.150107
0.993269 0.851721 0.149752
1.35234 0.854229 0.150293
1.70706 0.857101 0.151391
2.05811 0.862761 0.150623
2.40197 0.875466 0.144991
2.72735 0.908215 0.117391
3 1 0
-0.999999 0 0.166667
-0.75668 0.102752 0.235296
-0.435337 0.137435 0.256575
-0.0871423 0.147154 0.260635
0.269524 0.151138 0.261574
0.631936 0.151934 0.261358
0.995387 0.151191 0.261113
1.35417 0.149855 0.262257
1.70845 0.148584 0.261526
2.06117 0.145633 0.259667
2.4087 0.136369 0.254691
2.74589 0.108675 0.230171
3 0 0.166667
-0.999999 0.166667 0.166667
-0.767005 0.231911 0.235245
-0.44431 0.257782 0.257225
-0.0926645 0.265211 0.261468
0.266847 0.268002 0.262846
0.63086 0.268687 0.262463
0.99468 0.26817 0.262296
1.35453 0.267575 0.263173
1.71011 0.266609 0.262687
2.0646 0.264133 0.26123
2.41629 0.256348 0.256279
2.75513 0.233763 0.230461
3 0.166667 0.166667
-0.999999 0.333333 0.166667
-0.769398 0.365098 0.236558
-0.448902 0.378843 0.259117
-0.0962671 0.382811 0.263913
0.26401 0.38466 0.265133
0.630048 0.385032 0.264361
0.994358 0.384944 0.263896
1.35496 0.384741 0.264969
1.7123 0.384205 0.265073
2.06843 0.382258 0.264501
2.42113 0.377346 0.259922
2.75738 0.365088 0.232834
3 0.333333 0.166667
-0.999999 0.5 0.166667
-0.769549 0.500725 0.236769
-0.450041 0.500902 0.260292
-0.09759 0.501263 0.265359
0.262646 0.501441 0.266871
0.629861 0.501275 0.266139
0.994248 0.501703 0.265562
1.35514 0.501644 0.26704
1.71352 0.50171 0.267527
2.07054 0.501055 0.267195
2.42296 0.500405 0.262167
2.75779 0.500026 0.233303
3 0.5 0.166667
-0.999999 0.666667 0.166667
-0.769149 0.637562 0.234469
-0.449074 0.624198 0.258493
-0.0965011 0.619984 0.264833
0.263976 0.617913 0.267585
0.630113 0.617654 0.267169
0.99437 0.61831 0.266795
1.35486 0.618972 0.267958
1.71312 0.619704 0.268389
2.07042 0.621046 0.267511
2.423 0.625128 0.26162
2.75803 0.636148 0.231441
3 0.666667 0.166667
-0.999999 0.833333 0.166667
-0.766902 0.772462 0.231162
-0.445027 0.746349 0.255492
-0.0933802 0.737762 0.263595
0.26682 0.734609 0.267018
0.630882 0.734328 0.266926
0.994265 0.735021 0.266823
1.35404 0.736393 0.267673
1.71163 0.73737 0.268417
2.06801 0.740666 0.267091
2.42111 0.749257 0.260357
2.7578 0.77015 0.229735
3 0.833333 0.166667
-0.999999 1 0.166667
-0.75765 0.899786 0.23047
-0.435987 0.865315 0.253632
-0.0888804 0.854384 0.262825
0.269294 0.851077 0.266294
0.631707 0.850622 0.266649
0.993794 0.851466 0.267092
1.35351 0.853175 0.268288
1.70973 0.854845 0.269548
2.06451 0.859214 0.268843
2.41645 0.870258 0.263233
2.7533 0.898117 0.233417
3 1 0.166667
-0.999999 0 0.333333
-0.755351 0.107777 0.364924
-0.434488 0.139801 0.376717
-0.0863998 0.148588 0.377997
0.272716 0.150862 0.377765
0.635307 0.15146 0.377079
0.99778 0.150288 0.377543
1.35765 0.14943 0.379221
1.71615 0.148382 0.378689
2.0737 0.147347 0.377158
2.42755 0.141755 0.373372
2.75374 0.110449 0.361623
3 0 0.333333
-0.999999 0.166667 0.333333
-0.765348 0.235112 0.366848
-0.443327 0.25992 0.377566
-0.0909568 0.266217 0.379117
0.270509 0.267817 0.379024
0.634178 0.267988 0.378537
0.996982 0.266945 0.378903
1.35769 0.266586 0.380138
1.71745 0.265746 0.379595
2.07699 0.264603 0.378279
2.43557 0.259545 0.3738
2.76325 0.235325 0.361414
3 0.166667 0.333333
-0.999999 0.333333 0.333333
-0.767865 0.366936 0.368035
-0.447405 0.379941 0.379239
-0.093976 0.383139 0.381108
0.267944 0.38414 0.380934
0.633709 0.384108 0.380106
0.996487 0.383579 0.380373
1.35794 0.383394 0.381745
1.71956 0.382775 0.381595
2.08029 0.381582 0.380856
2.43994 0.378488 0.375925
2.76569 0.36584 0.362306
3 0.333333 0.333333
-0.999999 0.5 0.333333
-0.768389 0.500966 0.36768
-0.448132 0.501103 0.379364
-0.095305 0.500617 0.382149
0.266875 0.500418 0.382574
0.633995 0.500488 0.38147
0.996375 0.500481 0.381957
1.35756 0.500339 0.383442
1.72047 0.49998 0.383402
2.08193 0.499395 0.382486
2.44106 0.499325 0.376747
2.76615 0.499487 0.361543
3 0.5 0.333333
-0.999999 0.666667 0.333333
-0.767909 0.635124 0.365774
-0.44734 0.622374 0.378124
-0.0939435 0.61835 0.381933
0.268192 0.61704 0.383243
0.633958 0.61695 0.382636
0.996543 0.617481 0.38314
1.35733 0.617423 0.384327
1.71942 0.617315 0.384366
2.08078 0.617906 0.382757
2.44049 0.620963 0.376051
2.76588 0.633302 0.360287
3 0.666667 0.333333
-0.999999 0.833333 0.333333
-0.765334 0.76619 0.364662
-0.443352 0.741539 0.377517
-0.0907724 0.734897 0.382108
0.270911 0.733427 0.383479
0.634572 0.733253 0.383203
0.996135 0.734217 0.383769
1.35652 0.734199 0.384833
1.71728 0.73458 0.384953
2.07777 0.735952 0.383118
2.43749 0.740952 0.376514
2.76421 0.76448 0.360763
3 0.833333 0.333333
-0.999999 1 0.333333
-0.756028 0.891298 0.364851
-0.435304 0.858849 0.377373
-0.086175 0.85035 0.382652
0.272947 0.849207 0.383987
0.635096 0.849575 0.383575
0.995947 0.850743 0.384476
1.35541 0.850872 0.386064
1.71523 0.851848 0.386521
2.07399 0.853356 0.38553
2.43061 0.859671 0.379533
2.75654 0.890799 0.365112
3 1 0.333333
-0.999999 0 0.5
-0.755756 0.110315 0.497175
-0.433821 0.141943 0.496906
-0.0823885 0.149015 0.494645
0.278471 0.149707 0.493438
0.64036 0.150128 0.493316
1.0013 0.149002 0.494497
1.36138 0.149217 0.496091
1.72271 0.148949 0.495463
2.08226 0.14895 0.494955
2.43326 0.142682 0.495903
2.75458 0.110272 0.49684
3 0 0.5
-0.999999 0.166667 0.5
-0.765302 0.236552 0.500652
-0.442178 0.261241 0.498771
-0.0867161 0.266077 0.496653
0.276259 0.266529 0.495239
0.639136 0.266516 0.494985
1.00038 0.265518 0.495807
1.36154 0.265872 0.496799
1.72429 0.265404 0.496172
2.08614 0.264913 0.495674
2.44166 0.259839 0.495813
2.76457 0.23487 0.49698
3 0.166667 0.5
-0.999999 0.333333 0.5
-0.767513 0.367276 0.501896
-0.446054 0.380311 0.500201
-0.0897243 0.382671 0.498207
0.273923 0.383157 0.496597
0.638512 0.383025 0.495944
0.999871 0.382285 0.496831
1.36167 0.382386 0.497919
1.72667 0.381612 0.497566
2.08952 0.380628 0.497407
2.44587 0.377805 0.496714
2.76724 0.365259 0.496691
3 0.333333 0.5
-0.999999 0.5 0.5
-0.768053 0.500238 0.501294
-0.447046 0.500537 0.500043
-0.0909734 0.500357 0.498547
0.272699 0.500054 0.497718
0.638397 0.499583 0.497151
0.999986 0.499218 0.498224
1.36156 0.498862 0.499354
1.72743 0.498347 0.498737
2.09097 0.497919 0.497866
2.44686 0.497723 0.496419
2.7677 0.498168 0.49553
3 0.5 0.5
-0.999999 0.666667 0.5
-0.76774 0.633051 0.500308
-0.446247 0.62044 0.499952
-0.0896288 0.617694 0.49912
0.27335 0.616864 0.498912
0.638114 0.616097 0.498596
0.999999 0.616113 0.499643
1.36152 0.615346 0.500567
1.72627 0.615208 0.499806
2.08973 0.615635 0.498078
2.44601 0.618001 0.496112
2.76728 0.631256 0.494755
3 0.666667 0.5
-0.999999 0.833333 0.5
-0.765051 0.763404 0.500022
-0.442177 0.738568 0.500903
-0.0865573 0.733516 0.500963
0.275641 0.733071 0.50042
0.638199 0.732582 0.499792
0.999364 0.732805 0.500718
1.36089 0.731817 0.501478
1.72394 0.731843 0.501055
2.08693 0.732265 0.499435
2.44221 0.737163 0.497381
2.76496 0.762133 0.495783
3 0.833333 0.5
-0.999999 1 0.5
-0.756063 0.887919 0.500462
-0.434105 0.855788 0.500842
-0.0827107 0.849492 0.50167
0.27726 0.849473 0.501171
0.638589 0.84921 0.500495
0.998768 0.849264 0.501996
1.35993 0.848156 0.503115
1.722 0.8486 0.502808
2.08301 0.849311 0.501235
2.43454 0.856557 0.498898
2.75633 0.888953 0.498758
3 1 0.5
-0.999999 0 0.666667
-0.756429 0.108573 0.630549
-0.430339 0.139006 0.616255
-0.0736832 0.145258 0.610421
0.285146 0.146466 0.609741
0.644896 0.147344 0.61038
1.00418 0.147518 0.611988
1.36507 0.148982 0.612925
1.72721 0.149226 0.612668
2.08598 0.148118 0.614178
2.43476 0.139535 0.619692
2.75486 0.106941 0.63268
3 0 0.666667
-0.999999 0.166667 0.666667
-0.764922 0.234262 0.635377
-0.43776 0.257584 0.619483
-0.0777793 0.262615 0.612933
0.282889 0.263752 0.611367
0.643448 0.264073 0.611659
1.00367 0.264141 0.612684
1.36533 0.265344 0.613278
1.72914 0.265055 0.613137
2.09069 0.263508 0.614747
2.44316 0.256772 0.619562
2.76516 0.232064 0.632698
3 0.166667 0.666667
-0.999999 0.333333 0.666667
[...]
POINT_DATA 637
SCALARS scalars float 1
LOOKUP_TABLE default
0.999999 0.936967 0.795517 0.623008 0.449303 0.292906 0.209487 0.279653 0.424662 0.58853 0.749781 0.891862 1 0.999999 0.945874 0.800027 0.619589 0.439217 0.272149 0.178164 0.257633 0.412248 0.581904 0.749348 0.899626 1 0.999999 0.945832 0.8016 0.618315 0.434933 0.259201 0.156882 0.244035 0.406483 0.58035 0.751105 0.901837 1 0.999999 0.945065 0.801739 0.618712 0.433992 0.254793 0.149558 0.239616 0.40572 0.581802 0.752823 0.903048 1 0.999999 0.945361 0.801879 0.619219 0.435142 0.260279 0.157902 0.245364 0.408592 0.584222 0.754558 0.904056 1 0.999999 0.94573 0.80078 0.620891 0.440096 0.273675 0.179717 0.258614 0.415101 0.587542 0.756296 0.904764 1 0.999999 0.938829 0.796134 0.623679 0.451506 0.294161 0.21085 0.279842 0.427799 0.594145 0.759736 0.906347 1 0.999999 0.931578 0.786019 0.612552 0.4354 0.269465 0.178326 0.258362 0.414473 0.587175 0.75958 0.9212 1 0.999999 0.938458 0.788182 0.608235 0.423527 0.246131 0.139558 0.234068 0.401458 0.580705 0.760266 0.92643 1 0.999999 0.939208 0.788993 0.606168 0.417687 0.231391 0.110222 0.218538 0.394829 0.578862 0.761473 0.926955 1 0.999999 0.938836 0.78895 0.605686 0.416264 0.226489 0.0990769 0.213538 0.393344 0.579327 0.762297 0.926853 1 0.999999 0.93872 0.788921 0.606325 0.417997 0.231952 0.111336 0.218976 0.395972 0.58106 0.763399 0.927464 1 0.999999 0.937771 0.788227 0.608793 0.423903 0.246659 0.140462 0.2339 0.403322 0.584215 0.764874 0.928763 1 0.999999 0.93192 0.785848 0.614191 0.4359 0.270117 0.179405 0.258449 0.416323 0.590701 0.767029 0.927996 1 0.999999 0.928833 0.781649 0.606579 0.424182 0.253117 0.156672 0.246796 0.413069 0.59394 0.775006 0.92744 1 0.999999 0.935125 0.783488 0.601029 0.411412 0.227974 0.110188 0.220597 0.399374 0.586965 0.775549 0.932873 1 0.999999 0.935779 0.783474 0.597972 0.404756 0.211224 0.0689182 0.203555 0.39236 0.584228 0.775759 0.933369 1 0.999999 0.935687 0.78282 0.597303 0.402813 0.205069 0.0487611 0.197361 0.390357 0.584 0.775607 0.933238 1 0.999999 0.935671 0.783211 0.597884 0.404643 0.211313 0.0700848 0.203415 0.392561 0.584917 0.776347 0.933531 1 0.999999 0.934941 0.783338 0.6009 0.411241 0.228055 0.111278 0.220278 0.399792 0.588034 0.77754 0.93382 1 0.999999 0.92961 0.78273 0.606983 0.42464 0.25387 0.157828 0.246261 0.413068 0.594726 0.778096 0.930183 1 0.999999 0.929 0.780182 0.601174 0.416115 0.244585 0.149109 0.245346 0.416921 0.601035 0.779774 0.927829 1 0.999999 0.934586 0.781258 0.595088 0.403005 0.21842 0.0989414 0.218698 0.403253 0.594332 0.780583 0.933739 1 0.999999 0.934798 0.780802 0.591787 0.395906 0.2011 0.0490543 0.201084 0.396293 0.591424 0.780478 0.934458 1 0.999999 0.93472 0.780379 0.590975 0.393974 0.194958 0.00194047 0.194897 0.394097 0.590975 0.780203 0.934381 1 0.999999 0.935012 0.780949 0.59166 0.396458 0.201667 0.0505548 0.201499 0.396297 0.591941 0.780868 0.934629 1 0.999999 0.934339 0.78128 0.594991 0.403675 0.219609 0.100533 0.219155 0.403581 0.595573 0.781484 0.934357 1 0.999999 0.929512 0.780871 0.601837 0.417489 0.2463 0.150754 0.245795 0.417127 0.602173 0.781161 0.929652 1 0.999999 0.93016 0.777855 0.594454 0.412615 0.245738 0.157381 0.253866 0.424646 0.606689 0.782076 0.928329 1 0.999999 0.934562 0.777867 0.588152 0.399711 0.220387 0.111484 0.228152 0.411347 0.600828 0.783121 0.934733 1 0.999999 0.934214 0.776987 0.585273 0.392721 0.203974 0.0716137 0.211656 0.404944 0.598237 0.783291 0.935629 1 0.999999 0.934087 0.776547 0.58455 0.390771 0.198368 0.0523268 0.205888 0.403417 0.597797 0.7832 0.935785 1 0.999999 0.934311 0.776942 0.585058 0.393092 0.204996 0.0724259 0.212476 0.405655 0.598647 0.78404 0.935958 1 0.999999 0.933853 0.77689 0.588238 0.400432 0.222325 0.113085 0.229442 0.412461 0.601985 0.784162 0.935204 1 0.999999 0.929591 0.776723 0.595322 0.41425 0.248563 0.159278 0.254961 0.425717 0.608111 0.783144 0.929924 1 0.999999 0.929059 0.767612 0.591 0.416382 0.258639 0.180105 0.270922 0.436478 0.61439 0.785589 0.931104 1 0.999999 0.93019 0.766033 0.584962 0.403854 0.234817 0.141965 0.247508 0.424509 0.609087 0.78848 0.937864 1 0.999999 0.929145 0.76478 0.582012 0.396849 0.220435 0.113962 0.233114 0.418852 0.607044 0.789602 0.938941 1 0.999999 0.928699 0.763853 0.580511 0.394489 0.21541 0.102644 0.228022 0.417333 0.606611 0.789904 0.939221 1 0.999999 0.928949 0.763161 0.580344 0.396237 0.220687 0.113999 0.233277 0.419003 0.607314 0.790079 0.939616 1 0.999999 0.928569 0.762225 0.582544 0.403253 0.236472 0.143061 0.248218 0.425039 0.60952 0.78931 0.93881 1 0.999999 0.924731 0.762095 0.589291 0.416475 0.260818 0.181554 0.271866 0.437389 0.614449 0.788011 0.933162 1 0.999999 0.907174 0.760385 0.594485 0.427912 0.280362 0.21238 0.295982 0.452781 0.624482 0.79683 0.939167 1 0.999999 0.906481 0.757732 0.588477 0.415897 0.260009 0.181975 0.275437 0.441329 0.62172 0.801561 0.946335 1 0.999999 0.905977 0.756172 0.585304 0.409794 0.247338 0.161031 0.262179 0.436692 0.620579 0.80322 0.946644 1 0.999999 0.905035 0.754586 0.583097 0.407127 0.241922 0.153204 0.257119 0.435883 0.620228 0.803393 0.946597 1 0.999999 0.903769 0.75289 0.581914 0.40813 0.246545 0.160766 0.261918 0.436978 0.619997 0.803293 0.947428 1 0.999999 0.90143 0.751298 0.583847 0.414317 0.260321 0.18197 0.274996 0.441274 0.621498 0.801569 0.947288 1 0.999999 0.894485 0.752081 0.590533 0.426671 0.282142 0.213118 0.296239 0.452115 0.625923 0.798636 0.940067 1 
