# vtk DataFile Version 5.1
vtk output
ASCII

DATASET UNSTRUCTURED_GRID
POINTS 931 float
0 0 0
0.5 0 0
1 0 0
1.5 0 0
2 0 0
2.5 0 0
3 0 0
0 0.5 0
0.5 0.5 0
1 0.5 0
1.5 0.5 0
2 0.5 0
2.5 0.5 0
3 0.5 0
0 1 0
0.5 1 0
1 1 0
1.5 1 0
2 1 0
2.5 1 0
3 1 0
0 0 0.5
0.5 0 0.5
1 0 0.5
1.5 0 0.5
2 0 0.5
2.5 0 0.5
3 0 0.5
0 0.5 0.5
0.5 0.5 0.5
1 0.5 0.5
1.5 0.5 0.5
2 0.5 0.5
2.5 0.5 0.5
3 0.5 0.5
0 1 0.5
0.5 1 0.5
1 1 0.5
1.5 1 0.5
2 1 0.5
2.5 1 0.5
3 1 0.5
0 0 1
0.5 0 1
1 0 1
1.5 0 1
2 0 1
2.5 0 1
3 0 1
0 0.5 1
0.5 0.5 1
1 0.5 1
1.5 0.5 1
2 0.5 1
2.5 0.5 1
3 0.5 1
0 1 1
0.5 1 1
1 1 1
1.5 1 1
2 1 1
2.5 1 1
3 1 1
0 0.166667 0
0 0.333333 0
0.166667 0.5 0.166667
0.333333 0.5 0.333333
0.333333 0.333333 0.333333
0.166667 0.166667 0.166667
0.166667 0.166667 0
0.333333 0.333333 0
0.166667 0.5 0
0.333333 0.5 0
0.5 0.5 0.333333
0.5 0.5 0.166667
0.166667 0.333333 0
0.333333 0.5 0.166667
0.333333 0.333333 0.166667
0.166667 0.333333 0.166667
0.166667 0.166667 0.5
0.333333 0.333333 0.5
0.5 0.333333 0.5
0.5 0.166667 0.5
0.333333 0 0.5
0.166667 0 0.5
0 0 0.333333
0 0 0.166667
0.333333 0 0.333333
0.166667 0 0.166667
0.166667 0.166667 0.333333
0.333333 0.166667 0.333333
0.166667 0 0.333333
0.333333 0.166667 0.5
0 0.5 0.166667
0 0.5 0.333333
0 0.333333 0.333333
0 0.166667 0.166667
0.166667 0.5 0.5
0.333333 0.5 0.5
0.166667 0.5 0.333333
0.166667 0.333333 0.333333
0 0.333333 0.166667
0 0.166667 0.5
0 0.333333 0.5
0.166667 0.333333 0.5
0 0.166667 0.333333
0.5 0 0.333333
0.5 0 0.166667
0.166667 0 0
0.333333 0 0
0.5 0.333333 0.333333
0.5 0.166667 0.166667
0.333333 0 0.166667
0.333333 0.166667 0.166667
0.5 0.166667 0.333333
0.5 0.333333 0
0.5 0.166667 0
0.333333 0.166667 0
0.5 0.333333 0.166667
0.666667 0.5 0.166667
0.833333 0.5 0.333333
0.833333 0.333333 0.333333
0.666667 0.166667 0.166667
0.666667 0.166667 0
0.833333 0.333333 0
0.666667 0.5 0
0.833333 0.5 0
1 0.5 0.333333
1 0.5 0.166667
0.666667 0.333333 0
0.833333 0.5 0.166667
0.833333 0.333333 0.166667
0.666667 0.333333 0.166667
0.666667 0.166667 0.5
0.833333 0.333333 0.5
1 0.333333 0.5
1 0.166667 0.5
0.833333 0 0.5
0.666667 0 0.5
0.833333 0 0.333333
0.666667 0 0.166667
0.666667 0.166667 0.333333
0.833333 0.166667 0.333333
0.666667 0 0.333333
0.833333 0.166667 0.5
0.666667 0.5 0.5
0.833333 0.5 0.5
0.666667 0.5 0.333333
0.666667 0.333333 0.333333
0.666667 0.333333 0.5
1 0 0.333333
1 0 0.166667
0.666667 0 0
0.833333 0 0
1 0.333333 0.333333
1 0.166667 0.166667
0.833333 0 0.166667
0.833333 0.166667 0.166667
1 0.166667 0.333333
1 0.333333 0
1 0.166667 0
0.833333 0.166667 0
1 0.333333 0.166667
1.16667 0.5 0.166667
1.33333 0.5 0.333333
1.33333 0.333333 0.333333
1.16667 0.166667 0.166667
1.16667 0.166667 0
1.33333 0.333333 0
1.16667 0.5 0
1.33333 0.5 0
1.5 0.5 0.333333
1.5 0.5 0.166667
1.16667 0.333333 0
1.33333 0.5 0.166667
1.33333 0.333333 0.166667
1.16667 0.333333 0.166667
1.16667 0.166667 0.5
1.33333 0.333333 0.5
1.5 0.333333 0.5
1.5 0.166667 0.5
1.33333 0 0.5
1.16667 0 0.5
1.33333 0 0.333333
1.16667 0 0.166667
1.16667 0.166667 0.333333
1.33333 0.166667 0.333333
1.16667 0 0.333333
1.33333 0.166667 0.5
1.16667 0.5 0.5
1.33333 0.5 0.5
1.16667 0.5 0.333333
1.16667 0.333333 0.333333
1.16667 0.333333 0.5
1.5 0 0.333333
1.5 0 0.166667
1.16667 0 0
1.33333 0 0
1.5 0.333333 0.333333
1.5 0.166667 0.166667
1.33333 0 0.166667
1.33333 0.166667 0.166667
1.5 0.166667 0.333333
1.5 0.333333 0
1.5 0.166667 0
1.33333 0.166667 0
1.5 0.333333 0.166667
1.66667 0.5 0.166667
1.83333 0.5 0.333333
1.83333 0.333333 0.333333
1.66667 0.166667 0.166667
1.66667 0.166667 0
1.83333 0.333333 0
1.66667 0.5 0
1.83333 0.5 0
2 0.5 0.333333
2 0.5 0.166667
1.66667 0.333333 0
1.83333 0.5 0.166667
1.83333 0.333333 0.166667
1.66667 0.333333 0.166667
1.66667 0.166667 0.5
1.83333 0.333333 0.5
2 0.333333 0.5
2 0.166667 0.5
1.83333 0 0.5
1.66667 0 0.5
1.83333 0 0.333333
1.66667 0 0.166667
1.66667 0.166667 0.333333
1.83333 0.166667 0.333333
1.66667 0 0.333333
1.83333 0.166667 0.5
1.66667 0.5 0.5
1.83333 0.5 0.5
1.66667 0.5 0.333333
1.66667 0.333333 0.333333
1.66667 0.333333 0.5
2 0 0.333333
2 0 0.166667
1.66667 0 0
1.83333 0 0
2 0.333333 0.333333
2 0.166667 0.166667
1.83333 0 0.166667
1.83333 0.166667 0.166667
2 0.166667 0.333333
2 0.333333 0
2 0.166667 0
1.83333 0.166667 0
2 0.333333 0.166667
2.16667 0.5 0.166667
2.33333 0.5 0.333333
2.33333 0.333333 0.333333
2.16667 0.166667 0.166667
2.16667 0.166667 0
2.33333 0.333333 0
2.16667 0.5 0
2.33333 0.5 0
2.5 0.5 0.333333
2.5 0.5 0.166667
2.16667 0.333333 0
2.33333 0.5 0.166667
2.33333 0.333333 0.166667
2.16667 0.333333 0.166667
2.16667 0.166667 0.5
2.33333 0.333333 0.5
2.5 0.333333 0.5
2.5 0.166667 0.5
2.33333 0 0.5
2.16667 0 0.5
2.33333 0 0.333333
2.16667 0 0.166667
2.16667 0.166667 0.333333
2.33333 0.166667 0.333333
2.16667 0 0.333333
2.33333 0.166667 0.5
2.16667 0.5 0.5
2.33333 0.5 0.5
2.16667 0.5 0.333333
2.16667 0.333333 0.333333
2.16667 0.333333 0.5
2.5 0 0.333333
2.5 0 0.166667
2.16667 0 0
2.33333 0 0
2.5 0.333333 0.333333
2.5 0.166667 0.166667
2.33333 0 0.166667
2.33333 0.166667 0.166667
2.5 0.166667 0.333333
2.5 0.333333 0
2.5 0.166667 0
2.33333 0.166667 0
2.5 0.333333 0.166667
2.66667 0.5 0.166667
2.83333 0.5 0.333333
2.83333 0.333333 0.333333
2.66667 0.166667 0.166667
2.66667 0.166667 0
2.83333 0.333333 0
2.66667 0.5 0
2.83333 0.5 0
3 0.5 0.333333
3 0.5 0.166667
2.66667 0.333333 0
2.83333 0.5 0.166667
2.83333 0.333333 0.166667
2.66667 0.333333 0.166667
2.66667 0.166667 0.5
2.83333 0.333333 0.5
3 0.333333 0.5
3 0.166667 0.5
2.83333 0 0.5
2.66667 0 0.5
2.83333 0 0.333333
2.66667 0 0.166667
2.66667 0.166667 0.333333
2.83333 0.166667 0.333333
2.66667 0 0.333333
2.83333 0.166667 0.5
2.66667 0.5 0.5
2.83333 0.5 0.5
2.66667 0.5 0.333333
2.66667 0.333333 0.333333
2.66667 0.333333 0.5
3 0 0.333333
3 0 0.166667
2.66667 0 0
2.83333 0 0
3 0.333333 0.333333
3 0.166667 0.166667
2.83333 0 0.166667
2.83333 0.166667 0.166667
3 0.166667 0.333333
3 0.333333 0
3 0.166667 0
2.83333 0.166667 0
3 0.333333 0.166667
0 0.666667 0
0 0.833333 0
0.166667 1 0.166667
0.333333 1 0.333333
0.333333 0.833333 0.333333
0.166667 0.666667 0.166667
0.166667 0.666667 0
0.333333 0.833333 0
0.166667 1 0
0.333333 1 0
0.5 1 0.333333
0.5 1 0.166667
0.166667 0.833333 0
0.333333 1 0.166667
0.333333 0.833333 0.166667
0.166667 0.833333 0.166667
0.166667 0.666667 0.5
0.333333 0.833333 0.5
0.5 0.833333 0.5
0.5 0.666667 0.5
0.166667 0.666667 0.333333
0.333333 0.666667 0.333333
0.333333 0.666667 0.5
0 1 0.166667
0 1 0.333333
0 0.833333 0.333333
0 0.666667 0.166667
0.166667 1 0.5
0.333333 1 0.5
0.166667 1 0.333333
0.166667 0.833333 0.333333
0 0.833333 0.166667
0 0.666667 0.5
0 0.833333 0.5
0.166667 0.833333 0.5
0 0.666667 0.333333
0.5 0.833333 0.333333
0.5 0.666667 0.166667
0.333333 0.666667 0.166667
0.5 0.666667 0.333333
0.5 0.833333 0
0.5 0.666667 0
0.333333 0.666667 0
0.5 0.833333 0.166667
0.666667 1 0.166667
0.833333 1 0.333333
0.833333 0.833333 0.333333
0.666667 0.666667 0.166667
0.666667 0.666667 0
0.833333 0.833333 0
0.666667 1 0
0.833333 1 0
1 1 0.333333
1 1 0.166667
0.666667 0.833333 0
0.833333 1 0.166667
0.833333 0.833333 0.166667
0.666667 0.833333 0.166667
0.666667 0.666667 0.5
0.833333 0.833333 0.5
1 0.833333 0.5
1 0.666667 0.5
0.666667 0.666667 0.333333
0.833333 0.666667 0.333333
0.833333 0.666667 0.5
0.666667 1 0.5
0.833333 1 0.5
0.666667 1 0.333333
0.666667 0.833333 0.333333
0.666667 0.833333 0.5
1 0.833333 0.333333
1 0.666667 0.166667
0.833333 0.666667 0.166667
1 0.666667 0.333333
1 0.833333 0
1 0.666667 0
0.833333 0.666667 0
1 0.833333 0.166667
1.16667 1 0.166667
1.33333 1 0.333333
1.33333 0.833333 0.333333
1.16667 0.666667 0.166667
1.16667 0.666667 0
1.33333 0.833333 0
1.16667 1 0
1.33333 1 0
1.5 1 0.333333
1.5 1 0.166667
1.16667 0.833333 0
1.33333 1 0.166667
1.33333 0.833333 0.166667
1.16667 0.833333 0.166667
1.16667 0.666667 0.5
1.33333 0.833333 0.5
1.5 0.833333 0.5
1.5 0.666667 0.5
1.16667 0.666667 0.333333
1.33333 0.666667 0.333333
1.33333 0.666667 0.5
1.16667 1 0.5
1.33333 1 0.5
1.16667 1 0.333333
1.16667 0.833333 0.333333
1.16667 0.833333 0.5
1.5 0.833333 0.333333
1.5 0.666667 0.166667
1.33333 0.666667 0.166667
1.5 0.666667 0.333333
1.5 0.833333 0
1.5 0.666667 0
1.33333 0.666667 0
1.5 0.833333 0.166667
1.66667 1 0.166667
1.83333 1 0.333333
1.83333 0.833333 0.333333
1.66667 0.666667 0.166667
1.66667 0.666667 0
1.83333 0.833333 0
1.66667 1 0
1.83333 1 0
2 1 0.333333
2 1 0.166667
1.66667 0.833333 0
1.83333 1 0.166667
1.83333 0.833333 0.166667
1.66667 0.833333 0.166667
1.66667 0.666667 0.5
1.83333 0.833333 0.5
2 0.833333 0.5
2 0.666667 0.5
1.66667 0.666667 0.333333
1.83333 0.666667 0.333333
1.83333 0.666667 0.5
1.66667 1 0.5
1.83333 1 0.5
1.66667 1 0.333333
1.66667 0.833333 0.333333
1.66667 0.833333 0.5
2 0.833333 0.333333
2 0.666667 0.166667
1.83333 0.666667 0.166667
2 0.666667 0.333333
2 0.833333 0
2 0.666667 0
1.83333 0.666667 0
2 0.833333 0.166667
2.16667 1 0.166667
2.33333 1 0.333333
2.33333 0.833333 0.333333
2.16667 0.666667 0.166667
2.16667 0.666667 0
2.33333 0.833333 0
2.16667 1 0
2.33333 1 0
2.5 1 0.333333
2.5 1 0.166667
2.16667 0.833333 0
2.33333 1 0.166667
2.33333 0.833333 0.166667
2.16667 0.833333 0.166667
2.16667 0.666667 0.5
2.33333 0.833333 0.5
2.5 0.833333 0.5
2.5 0.666667 0.5
2.16667 0.666667 0.333333
2.33333 0.666667 0.333333
2.33333 0.666667 0.5
2.16667 1 0.5
2.33333 1 0.5
2.16667 1 0.333333
2.16667 0.833333 0.333333
2.16667 0.833333 0.5
2.5 0.833333 0.333333
2.5 0.666667 0.166667
2.33333 0.666667 0.166667
2.5 0.666667 0.333333
2.5 0.833333 0
2.5 0.666667 0
2.33333 0.666667 0
2.5 0.833333 0.166667
2.66667 1 0.166667
2.83333 1 0.333333
2.83333 0.833333 0.333333
2.66667 0.666667 0.166667
2.66667 0.666667 0
2.83333 0.833333 0
2.66667 1 0
2.83333 1 0
3 1 0.333333
3 1 0.166667
2.66667 0.833333 0
2.83333 1 0.166667
2.83333 0.833333 0.166667
2.66667 0.833333 0.166667
2.66667 0.666667 0.5
2.83333 0.833333 0.5
3 0.833333 0.5
3 0.666667 0.5
2.66667 0.666667 0.333333
2.83333 0.666667 0.333333
2.83333 0.666667 0.5
2.66667 1 0.5
2.83333 1 0.5
2.66667 1 0.333333
2.66667 0.833333 0.333333
2.66667 0.833333 0.5
[...]
POINT_DATA 931
SCALARS weights float 1
LOOKUP_TABLE default
6.25 8.33333 8.33333 8.33333 8.33333 8.33333 2.08333 8.33333 12.5 12.5 12.5 12.5 12.5 4.16667 2.08333 4.16667 4.16667 4.16667 4.16667 4.16667 2.08333 8.33333 12.5 12.5 12.5 12.5 12.5 4.16667 12.5 25 25 25 25 25 12.5 4.16667 12.5 12.5 12.5 12.5 12.5 8.33333 2.08333 4.16667 4.16667 4.16667 4.16667 4.16667 2.08333 4.16667 12.5 12.5 12.5 12.5 12.5 8.33333 2.08333 8.33333 8.33333 8.33333 8.33333 8.33333 6.25 2.08333 2.08333 4.16667 4.16667 6.25 6.25 2.08333 2.08333 3.125 3.125 6.25 6.25 1.04167 2.08333 2.08333 2.08333 4.16667 4.16667 6.25 6.25 3.125 3.125 2.08333 2.08333 2.08333 2.08333 2.08333 2.08333 1.04167 2.08333 3.125 3.125 2.08333 2.08333 6.25 6.25 2.08333 2.08333 1.04167 3.125 3.125 2.08333 1.04167 3.125 3.125 2.08333 2.08333 4.16667 4.16667 1.04167 2.08333 2.08333 3.125 3.125 1.04167 2.08333 4.16667 4.16667 6.25 6.25 2.08333 2.08333 3.125 3.125 6.25 6.25 1.04167 2.08333 2.08333 2.08333 4.16667 4.16667 6.25 6.25 3.125 3.125 2.08333 2.08333 2.08333 2.08333 1.04167 2.08333 6.25 6.25 2.08333 2.08333 2.08333 3.125 3.125 2.08333 2.08333 4.16667 4.16667 1.04167 2.08333 2.08333 3.125 3.125 1.04167 2.08333 4.16667 4.16667 6.25 6.25 2.08333 2.08333 3.125 3.125 6.25 6.25 1.04167 2.08333 2.08333 2.08333 4.16667 4.16667 6.25 6.25 3.125 3.125 2.08333 2.08333 2.08333 2.08333 1.04167 2.08333 6.25 6.25 2.08333 2.08333 2.08333 3.125 3.125 2.08333 2.08333 4.16667 4.16667 1.04167 2.08333 2.08333 3.125 3.125 1.04167 2.08333 4.16667 4.16667 6.25 6.25 2.08333 2.08333 3.125 3.125 6.25 6.25 1.04167 2.08333 2.08333 2.08333 4.16667 4.16667 6.25 6.25 3.125 3.125 2.08333 2.08333 2.08333 2.08333 1.04167 2.08333 6.25 6.25 2.08333 2.08333 2.08333 3.125 3.125 2.08333 2.08333 4.16667 4.16667 1.04167 2.08333 2.08333 3.125 3.125 1.04167 2.08333 4.16667 4.16667 6.25 6.25 2.08333 2.08333 3.125 3.125 6.25 6.25 1.04167 2.08333 2.08333 2.08333 4.16667 4.16667 6.25 6.25 3.125 3.125 2.08333 2.08333 2.08333 2.08333 1.04167 2.08333 6.25 6.25 2.08333 2.08333 2.08333 3.125 3.125 2.08333 2.08333 4.16667 4.16667 1.04167 2.08333 2.08333 3.125 3.125 1.04167 2.08333 4.16667 4.16667 6.25 6.25 2.08333 2.08333 3.125 3.125 3.125 3.125 1.04167 2.08333 2.08333 2.08333 4.16667 4.16667 3.125 3.125 3.125 3.125 2.08333 2.08333 2.08333 2.08333 1.04167 2.08333 6.25 6.25 2.08333 2.08333 2.08333 1.04167 1.04167 2.08333 2.08333 2.08333 2.08333 1.04167 2.08333 1.04167 1.04167 1.04167 1.04167 1.04167 2.08333 2.08333 2.08333 2.08333 6.25 6.25 2.08333 2.08333 1.04167 1.04167 3.125 3.125 1.04167 1.04167 2.08333 2.08333 4.16667 4.16667 6.25 6.25 2.08333 2.08333 2.08333 1.04167 1.04167 2.08333 2.08333 3.125 3.125 1.04167 2.08333 1.04167 3.125 3.125 2.08333 1.04167 4.16667 4.16667 2.08333 2.08333 3.125 3.125 1.04167 2.08333 2.08333 2.08333 6.25 6.25 2.08333 2.08333 1.04167 1.04167 3.125 3.125 1.04167 1.04167 2.08333 2.08333 4.16667 4.16667 6.25 6.25 2.08333 2.08333 2.08333 3.125 3.125 1.04167 2.08333 2.08333 4.16667 4.16667 2.08333 2.08333 3.125 3.125 1.04167 2.08333 2.08333 2.08333 6.25 6.25 2.08333 2.08333 1.04167 1.04167 3.125 3.125 1.04167 1.04167 2.08333 2.08333 4.16667 4.16667 6.25 6.25 2.08333 2.08333 2.08333 3.125 3.125 1.04167 2.08333 2.08333 4.16667 4.16667 2.08333 2.08333 3.125 3.125 1.04167 2.08333 2.08333 2.08333 6.25 6.25 2.08333 2.08333 1.04167 1.04167 3.125 3.125 1.04167 1.04167 2.08333 2.08333 4.16667 4.16667 6.25 6.25 2.08333 2.08333 2.08333 3.125 3.125 1.04167 2.08333 2.08333 4.16667 4.16667 2.08333 2.08333 3.125 3.125 1.04167 2.08333 2.08333 2.08333 6.25 6.25 2.08333 2.08333 1.04167 1.04167 3.125 3.125 1.04167 1.04167 2.08333 2.08333 4.16667 4.16667 6.25 6.25 2.08333 2.08333 2.08333 3.125 3.125 1.04167 2.08333 2.08333 4.16667 4.16667 2.08333 2.08333 3.125 3.125 1.04167 2.08333 2.08333 2.08333 6.25 6.25 2.08333 2.08333 1.04167 1.04167 2.08333 2.08333 1.04167 1.04167 2.08333 2.08333 4.16667 4.16667 3.125 3.125 2.08333 2.08333 2.08333 3.125 3.125 1.04167 2.08333 2.08333 2.08333 2.08333 2.08333 1.04167 1.04167 1.04167 1.04167 1.04167 4.16667 4.16667 6.25 6.25 6.25 6.25 2.08333 2.08333 2.08333 2.08333 2.08333 3.125 3.125 1.04167 1.04167 2.08333 2.08333 2.08333 2.08333 2.08333 2.08333 1.04167 1.04167 3.125 3.125 2.08333 2.08333 3.125 3.125 2.08333 2.08333 1.04167 1.04167 1.04167 1.04167 1.04167 3.125 3.125 4.16667 4.16667 1.04167 2.08333 2.08333 2.08333 4.16667 4.16667 6.25 6.25 6.25 6.25 2.08333 2.08333 2.08333 2.08333 2.08333 3.125 3.125 1.04167 1.04167 2.08333 2.08333 2.08333 2.08333 1.04167 1.04167 3.125 3.125 2.08333 2.08333 1.04167 3.125 3.125 4.16667 4.16667 1.04167 2.08333 2.08333 2.08333 4.16667 4.16667 6.25 6.25 6.25 6.25 2.08333 2.08333 2.08333 2.08333 2.08333 3.125 3.125 1.04167 1.04167 2.08333 2.08333 2.08333 2.08333 1.04167 1.04167 3.125 3.125 2.08333 2.08333 1.04167 3.125 3.125 4.16667 4.16667 1.04167 2.08333 2.08333 2.08333 4.16667 4.16667 6.25 6.25 6.25 6.25 2.08333 2.08333 2.08333 2.08333 2.08333 3.125 3.125 1.04167 1.04167 2.08333 2.08333 2.08333 2.08333 1.04167 1.04167 3.125 3.125 2.08333 2.08333 1.04167 3.125 3.125 4.16667 4.16667 1.04167 2.08333 2.08333 2.08333 4.16667 4.16667 6.25 6.25 6.25 6.25 2.08333 2.08333 2.08333 2.08333 2.08333 3.125 3.125 1.04167 1.04167 2.08333 2.08333 2.08333 2.08333 1.04167 1.04167 3.125 3.125 2.08333 2.08333 1.04167 3.125 3.125 4.16667 4.16667 1.04167 2.08333 2.08333 2.08333 4.16667 4.16667 6.25 6.25 3.125 3.125 2.08333 2.08333 2.08333 2.08333 2.08333 2.08333 2.08333 1.04167 1.04167 2.08333 2.08333 2.08333 2.08333 1.04167 1.04167 3.125 3.125 2.08333 2.08333 1.04167 1.04167 1.04167 2.08333 2.08333 1.04167 2.08333 1.04167 1.04167 2.08333 2.08333 6.25 6.25 3.125 3.125 1.04167 2.08333 2.08333 2.08333 2.08333 3.125 3.125 2.08333 2.08333 1.04167 1.04167 1.04167 2.08333 2.08333 2.08333 2.08333 1.04167 2.08333 1.04167 1.04167 1.04167 1.04167 1.04167 4.16667 4.16667 2.08333 2.08333 2.08333 2.08333 2.08333 6.25 6.25 3.125 3.125 1.04167 2.08333 2.08333 2.08333 2.08333 3.125 3.125 2.08333 2.08333 1.04167 2.08333 2.08333 1.04167 2.08333 1.04167 4.16667 4.16667 2.08333 2.08333 2.08333 2.08333 2.08333 6.25 6.25 3.125 3.125 1.04167 2.08333 2.08333 2.08333 2.08333 3.125 3.125 2.08333 2.08333 1.04167 2.08333 2.08333 1.04167 2.08333 1.04167 4.16667 4.16667 2.08333 2.08333 2.08333 2.08333 2.08333 6.25 6.25 3.125 3.125 1.04167 2.08333 2.08333 2.08333 2.08333 3.125 3.125 2.08333 2.08333 1.04167 2.08333 2.08333 1.04167 2.08333 1.04167 4.16667 4.16667 2.08333 2.08333 2.08333 2.08333 2.08333 6.25 6.25 3.125 3.125 1.04167 2.08333 2.08333 2.08333 2.08333 3.125 3.125 2.08333 2.08333 1.04167 2.08333 2.08333 1.04167 2.08333 1.04167 4.16667 4.16667 2.08333 2.08333 2.08333 2.08333 2.08333 6.25 6.25 2.08333 2.08333 1.04167 2.08333 2.08333 2.08333 2.08333 2.08333 2.08333 2.08333 2.08333 1.04167 2.08333 2.08333 1.04167 2.08333 1.04167 2.08333 2.08333 2.08333 1.04167 1.04167 
VECTORS u float
-0.999 0 0  -0.714579 0.119459 0.118415  -0.363014 0.120898 0.117744  -0.00363994 0.120519 0.117074  0.359626 0.12088 0.118269  0.719264 0.124317 0.113508  0.999 0 0  -0.999 0 0  -0.723374 0.00111073 0.122355  -0.362344 0.00138897 0.119495  -0.00147581 0.00166374 0.119869  0.366248 0.00280619 0.119652  0.715498 -0.000789732 0.117843  0.999 0 0  -0.999 0 0  -0.71784 -0.116421 0.122705  -0.362512 -0.117559 0.120825  -0.000885248 -0.117177 0.121235  0.359672 -0.11773 0.120882  0.716944 -0.120366 0.11858  0.999 0 0  -0.999 0 0  -0.725329 0.121215 -0.00209659  -0.362527 0.118827 -0.00082764  -0.000985265 0.118421 -0.00123543  0.360763 0.118694 -0.0019573  0.717605 0.114488 -0.000894815  0.999 0 0  -0.999 0 0  -0.731656 6.09756e-05 0.00335878  -0.360742 -0.000652611 0.000781417  -0.000873089 0.000632942 0.000589073  0.354365 -0.00148845 -0.00113022  0.732202 -0.00385627 -0.00367439  0.999 0 0  -0.999 0 0  -0.720709 -0.115525 0.00224793  -0.363707 -0.11936 0.00166428  -0.00243008 -0.119254 0.0021534  0.361042 -0.120088 0.00277948  0.721921 -0.122093 0.00112861  0.999 0 0  -0.999 0 0  -0.721335 0.118563 -0.118014  -0.363558 0.116549 -0.120176  -6.92606e-05 0.116348 -0.12037  0.364188 0.115889 -0.121566  0.721585 0.115562 -0.123457  0.999 0 0  -0.999 0 0  -0.717686 -0.0024766 -0.119388  -0.363535 -0.00273412 -0.117985  -0.000504017 -0.00290343 -0.118796  0.366333 -0.00237569 -0.118849  0.730348 -0.00219849 -0.125121  0.999 0 0  -0.999 0 0  -0.714971 -0.122318 -0.116297  -0.362411 -0.120644 -0.116872  0.00242805 -0.120668 -0.116675  0.364811 -0.121839 -0.117676  0.71418 -0.121143 -0.116644  0.999 0 0  -0.999 1.49012e-08 0  -0.999 0 0  -0.958289 -0.0002653 0.0598906  -0.853352 -0.000217199 0.0400225  -0.855058 0.0385787 0.0389086  -0.957826 0.0521563 0.0536689  -0.939142 0.0488323 0.0955822  -0.839519 0.0385696 0.118305  -0.93947 0.0017634 0.1058  -0.839476 0.00186777 0.12311  -0.729361 -0.00047949 0.042828  -0.726994 0.000411093 0.0827761  -0.940696 0.0239193 0.102379  -0.848061 0.001037 0.08186  -0.845724 0.0393279 0.0800448  -0.956648 0.0253736 0.059631  -0.959431 0.0588717 -5.97239e-05  -0.857365 0.0422316 -0.00120088  -0.730611 0.03994 -0.0013234  -0.727672 0.0814575 -0.00171795  -0.839691 0.125371 -5.63562e-05  -0.941137 0.100332 -0.00105047  -0.999 0 0  -0.999 0 0  -0.840343 0.120954 0.0392579  -0.939005 0.0963758 0.0532514  -0.959488 0.0581807 0.027181  -0.847688 0.0813003 0.0390067  -0.945535 0.0975366 0.0242759  -0.850239 0.0839675 -0.000508904  -0.999 0 1.49012e-08  -0.999 0 0  -0.999 0 0  -0.999 0 0  -0.961217 0.000822842 -0.00209653  -0.862156 0.00178188 -0.00247499  -0.960616 0.00153702 0.0269943  -0.958869 0.0279888 0.0267911  -0.999 0 1.49012e-08  -0.999 1.49012e-08 0  -0.999 0 0  -0.959377 0.0300929 -0.000415057  -0.999 1.49012e-08 0  -0.723945 0.11983 0.0385967  -0.721495 0.118735 0.0787466  -0.921861 0.080424 0.084344  -0.824966 0.112951 0.11493  -0.728578 0.0400863 0.0395701  -0.723668 0.0798012 0.0780582  -0.835706 0.116669 0.0774785  -0.843782 0.0776635 0.0768643  -0.725636 0.0801972 0.0378536  -0.723105 0.0408799 0.11956  -0.721691 0.0801679 0.11737  -0.835982 0.0764489 0.115964  -0.725181 0.0399396 0.0796444  -0.605156 0.000926256 0.0811328  -0.483871 0.000339985 0.0406942  -0.484006 0.0400777 0.0395319  -0.60392 0.080049 0.0786566  -0.602532 0.0808018 0.118161  -0.483503 0.0412259 0.119071  -0.603759 0.00143743 0.120247  -0.483284 0.00141418 0.119755  -0.362157 0.000233948 0.0403352  -0.36236 0.000816107 0.0799335  -0.603976 0.0411938 0.118978  -0.48373 0.000837922 0.0802824  -0.483663 0.0405904 0.0793969  -0.604319 0.0407696 0.0795424  -0.605604 0.0802049 -0.000555038  -0.483816 0.0396116 -3.90708e-05  -0.362177 0.038964 6.27637e-05  -0.362473 0.0788673 -0.000457913  -0.48386 0.119212 -0.00116685  -0.604514 0.11955 -0.00125515  -0.483465 0.119518 0.0387806  -0.602378 0.1193 0.0788457  -0.604557 0.0799303 0.0392787  -0.483818 0.0799002 0.0390719  -0.604094 0.119203 0.0388702  -0.484019 0.0795444 -0.00059247  -0.607158 0.0002262 0.00142431  -0.483558 -0.000248104 0.000715256  -0.606727 0.000204563 0.0411981  -0.605196 0.040318 0.0396947  -0.606295 0.0400805 -0.000511348  -0.36258 0.119286 0.0385399  -0.362748 0.119941 0.0781263  -0.600013 0.119463 0.117729  -0.482715 0.120371 0.117934  -0.362545 0.0397563 0.0396129  -0.362685 0.0802176 0.0787252  -0.48317 0.119747 0.0785518  -0.483695 0.0803181 0.07888  -0.362507 0.0794872 0.0390134  -0.362736 0.0410416 0.118834  -0.362918 0.0809496 0.118274  -0.483335 0.0809214 0.118329  -0.362501 0.0404463 0.0793143  -0.241958 0.000802457 0.0800254  -0.121391 0.000460029 0.0402905  -0.121247 0.0400661 0.0397584  -0.241782 0.0801954 0.0787663  -0.242107 0.080869 0.118209  -0.121541 0.041233 0.118848  -0.242057 0.00146598 0.119651  -0.121844 0.00164866 0.119614  -0.00082767 0.000575364 0.0402947  -0.00101209 0.000959575 0.0801114  -0.242041 0.0410989 0.118792  -0.121564 0.00095737 0.0799888  -0.121295 0.040506 0.0792939  -0.241952 0.0403954 0.0793031  -0.241754 0.078834 -0.00049001  -0.120998 0.0393923 0.000119746  -0.000721931 0.0398639 6.96182e-05  -0.00065589 0.0791198 -0.000597119  -0.121455 0.118458 -0.00119573  -0.241847 0.118661 -0.00102076  -0.121069 0.119123 0.0384153  -0.242039 0.119813 0.0779713  -0.241856 0.0793978 0.0390952  -0.121197 0.0795183 0.0390905  -0.24187 0.119033 0.0384078  -0.121124 0.0789156 -0.000585675  -0.240917 -0.000438064 0.000628531  -0.120876 -8.443e-05 0.000673354  -0.241838 0.000269294 0.040288  -0.24176 0.0398186 0.0397187  -0.241612 0.0390846 4.33922e-05  -0.000831962 0.119201 0.0382505  -0.00130832 0.119937 0.077799  -0.242662 0.120613 0.117582  -0.123029 0.120557 0.117409  -0.000813961 0.0401454 0.0397584  -0.00110996 0.0802767 0.0785852  -0.121479 0.119693 0.0779431  -0.12144 0.0801835 0.0786982  -0.000828862 0.0797396 0.0390705  -0.000890255 0.0413992 0.118866  -0.00149095 0.0811325 0.118085  -0.121776 0.0809531 0.118014  -0.000824332 0.0405527 0.0792984  0.119742 0.000995457 0.0795473  0.239132 0.000243425 0.0392788  0.239307 0.0395185 0.0386388  0.119291 0.0802053 0.0782304  0.118802 0.0810721 0.118045  0.241304 0.0416523 0.118496  0.120147 0.00172693 0.119531  0.242774 0.00204331 0.119565  0.36138 0.000243604 0.0396086  0.363739 0.00109625 0.0793072  0.119833 0.0413417 0.118546  0.24138 0.000873446 0.0793106  0.241301 0.0409061 0.078844  0.119746 0.0406894 0.0789253  0.119759 0.0787962 -0.000866443  0.239494 0.0388551 -0.000499338  0.36078 0.0391598 -0.000813097  0.361949 0.0790211 -0.00125608  0.240263 0.118621 -0.00147271  0.119864 0.118705 -0.00132045  0.24031 0.119426 0.0379133  0.119034 0.120102 0.0774237  0.119632 0.0795762 0.0387425  0.240721 0.079617 0.0385743  0.119602 0.119236 0.0379988  0.240822 0.07884 -0.00108585  0.118554 -0.000110507 0.000510633  0.236911 -0.000648379 1.49608e-05  0.119306 0.000401139 0.0399057  0.119499 0.0398805 0.0393275  0.119367 0.0391618 -0.000154257  0.361283 0.119635 0.0376264  0.3615 0.12039 0.0777171  0.118202 0.12114 0.117352  0.238198 0.120894 0.11732  0.36185 0.0402073 0.0390801  0.361523 0.0808038 0.0783939  0.240059 0.12007 0.0774861  0.24078 0.0806564 0.0783126  0.361638 0.0799364 0.0384128  0.362642 0.0416271 0.118752  0.361484 0.0812664 0.118512  0.239667 0.081236 0.117722  0.362175 0.0408618 0.0787269  0.484309 0.00108415 0.0796904  0.605837 0.00092715 0.0405551  0.604542 0.0393505 0.0389083  0.482078 0.0805709 0.0782695  0.482193 0.080927 0.117762  0.602386 0.0399107 0.118746  0.482762 0.00254911 0.118925  0.599294 0.00167096 0.119797  0.731779 0.002213 0.0400136  0.727841 0.00216484 0.0788048  0.482658 0.0409894 0.118544  0.605988 0.000789344 0.0805595  0.60593 0.0418622 0.0799873  0.482957 0.0412805 0.0790281  0.483624 0.0797094 -0.00129625  0.607873 0.0398049 -0.00027886  0.73257 0.0384879 -0.000415921  0.728637 0.0784138 0.000346482  0.600299 0.118328 -0.00235531  0.481577 0.119331 -0.00178814  0.601386 0.120579 0.0384931  0.482359 0.12095 0.0773793  0.482658 0.080181 0.0388877  0.605328 0.081148 0.0388692  0.481903 0.12006 0.0376913  0.606128 0.0798825 -0.00107929  0.48073 -0.000829846 -0.000294596  0.606916 -0.0013507 -0.0011718  0.483637 0.000436902 0.0405458  0.483738 0.0402493 0.0392561  0.48385 0.0398803 -0.000656635  0.722135 0.123174 0.0415025  0.720559 0.122227 0.0776288  0.481241 0.121418 0.117825  0.602219 0.121952 0.117788  0.731089 0.0409496 0.0403745  0.723238 0.0816016 0.0777369  0.601911 0.121006 0.0779648  0.604374 0.0812544 0.0781449  0.727032 0.0817826 0.0401944  0.726018 0.0392776 0.119756  0.724036 0.079 0.112711  0.604763 0.0806096 0.117604  0.725578 0.0416372 0.0805756  0.853646 0.000198305 0.0760999  0.959646 0.000967324 0.0273592  0.956367 0.0272045 0.0235517  0.844461 0.0753258 0.0780261  0.830319 0.0864975 0.113387  0.95023 0.0389374 0.094834  0.851479 0.0112742 0.121209  0.957698 0.0124102 0.0910323  0.999 0 0  0.999 0 0  0.839821 0.0413226 0.122767  0.957298 -0.00350305 0.0548218  0.952793 0.0226844 0.0626384  0.847838 0.0409308 0.0811056  0.853757 0.0815068 -0.00234115  0.959427 0.0286523 -0.00611177  0.999 0 0  0.999 0 0  0.958901 0.0918851 -0.00701761  0.85448 0.124754 0.00258631  0.952889 0.0976593 0.016798  0.835017 0.119545 0.06502  0.850773 0.0766934 0.0343051  0.955389 0.0540938 0.0267907  0.835656 0.119698 0.0377716  0.958844 0.0620145 -0.000864923  0.864034 -0.000765413 0.00148171  0.961515 -0.00187126 0.000187516  0.856426 0.0020383 0.0399205  0.853991 0.0392626 0.0374967  0.859437 0.0383166 -0.00276813  0.999 0 0  0.999 0 0  0.825961 0.141754 0.0935137  0.94564 0.120634 0.0588373  0.999 0 0  0.999 0 0  0.945086 0.0908067 0.0278888  0.947282 0.0491579 0.0546983  0.999 1.49012e-08 0  0.999 0 0  0.999 0 0  0.945735 0.0758792 0.0916206  0.999 0 1.49012e-08  -0.999 0 0  -0.999 0 0  -0.949855 -0.089503 0.0558705  -0.831065 -0.117409 0.0399576  -0.84823 -0.0782539 0.0403342  -0.956319 -0.0245343 0.0591795  -0.936477 -0.0230251 0.100296  -0.832585 -0.0730655 0.11645  -0.928357 -0.0798054 0.100332  -0.82448 -0.112331 0.111862  -0.722846 -0.116558 0.0432253  -0.719967 -0.116014 0.0835387  -0.934839 -0.051675 0.0987996  -0.831292 -0.115402 0.0757888  -0.839513 -0.0750099 0.0797037  -0.950015 -0.0552343 0.0587148  -0.957466 -0.0295385 0.00206757  -0.852113 -0.0832139 7.15256e-07  -0.72781 -0.0786617 6.68168e-05  -0.730885 -0.0400781 0.000847459  -0.957976 -0.0267358 0.0281545  -0.852195 -0.0397232 0.0415136  -0.855523 -0.0395328 0.000679851  -0.999 0 1.49012e-08  -0.999 0 0  -0.999 0 0  -0.999 0 0  -0.954576 -0.0967232 0.00729686  -0.844601 -0.125591 0.00314498  -0.952738 -0.0941632 0.0275467  -0.954286 -0.0559763 0.0281882  -0.999 0 1.49012e-08  -0.999 0 0  -0.999 0 0  -0.954986 -0.0627093 -0.0014298  -0.999 0 0  -0.725845 -0.0795753 0.0404925  -0.725507 -0.0392149 0.0812631  -0.84814 -0.0364315 0.0829302  -0.727245 -0.0399455 0.0411785  -0.719869 -0.0784712 0.119835  -0.723512 -0.0391082 0.120035  -0.838362 -0.0351338 0.121616  -0.721769 -0.07863 0.0809623  -0.602308 -0.11805 0.0823261  -0.483123 -0.118921 0.0420387  -0.483864 -0.0798262 0.0413514  -0.604823 -0.0393658 0.0810554  -0.603699 -0.0383161 0.120551  -0.48274 -0.078409 0.12058  -0.601228 -0.116877 0.121984  -0.482278 -0.117634 0.121429  -0.3627 -0.118619 0.0416355  -0.36228 -0.118221 0.0812304  -0.602312 -0.0781684 0.120378  -0.48249 -0.11834 0.0815859  -0.482947 -0.0789344 0.0812467  -0.602629 -0.0786771 0.0813705  -0.607703 -0.0404946 0.000993788  -0.483738 -0.0800326 0.00172681  -0.362764 -0.0797225 0.00179142  -0.362471 -0.0403296 0.0012725  -0.605756 -0.0396867 0.0413914  -0.483885 -0.0397323 0.0410773  -0.484337 -0.040378 0.00101924  -0.603812 -0.11921 0.00240278  -0.483471 -0.119752 0.00226104  -0.605188 -0.11884 0.0421995  -0.603972 -0.0792682 0.0417631  -0.606687 -0.080318 0.00146633  -0.362619 -0.0792304 0.0413725  -0.362622 -0.0390191 0.0805646  -0.48357 -0.0391742 0.0806698  -0.362678 -0.0395241 0.0410331  -0.362365 -0.078223 0.120488  -0.362495 -0.0385124 0.120031  -0.483365 -0.0385086 0.120138  -0.362358 -0.0787184 0.0809642  -0.242074 -0.118074 0.081363  -0.121799 -0.118402 0.0418769  -0.121812 -0.0788654 0.0412661  -0.242031 -0.0386992 0.0805399  -0.24186 -0.0382716 0.120014  -0.121356 -0.0777497 0.120424  -0.242001 -0.117559 0.121021  -0.121441 -0.117323 0.120984  -0.0014683 -0.118313 0.0418621  -0.00109839 -0.117694 0.0815492  -0.241898 -0.0780259 0.120345  -0.121565 -0.117754 0.0813778  -0.121469 -0.0781781 0.0808881  -0.242017 -0.0784133 0.0809136  -0.241737 -0.0399535 0.00132376  -0.121792 -0.0795501 0.00179505  -0.0010432 -0.0791669 0.00161564  -0.000643015 -0.0391477 0.00112301  -0.242157 -0.0392783 0.0408825  -0.121367 -0.0391333 0.0408219  -0.121241 -0.0397058 0.00127721  -0.242835 -0.119358 0.00230378  -0.122264 -0.119224 0.00244248  -0.242268 -0.118605 0.0418739  -0.242066 -0.0789108 0.0414497  -0.242146 -0.0796082 0.00191778  -0.0010078 -0.0786768 0.0411153  -0.00104034 -0.0385165 0.0803334  -0.121539 -0.0385478 0.0804264  -0.000813961 -0.0390112 0.0406387  -0.000886321 -0.0776497 0.120499  -0.00102222 -0.0380149 0.119956  -0.121601 -0.0381243 0.119855  -0.000923276 -0.0780911 0.0808153  0.119663 -0.117926 0.0814136  0.240519 -0.118818 0.041889 