# vtk DataFile Version 5.1
vtk output
ASCII

DATASET UNSTRUCTURED_GRID
POINTS 931 float
0 0 0
0.333333 0 0
0.666667 0 0
1 0 0
1.33333 0 0
1.66667 0 0
2 0 0
2.33333 0 0
2.66667 0 0
3 0 0
0 0.333333 0
0.333333 0.333333 0
0.666667 0.333333 0
1 0.333333 0
1.33333 0.333333 0
1.66667 0.333333 0
2 0.333333 0
2.33333 0.333333 0
2.66667 0.333333 0
3 0.333333 0
0 0.666667 0
0.333333 0.666667 0
0.666667 0.666667 0
1 0.666667 0
1.33333 0.666667 0
1.66667 0.666667 0
2 0.666667 0
2.33333 0.666667 0
2.66667 0.666667 0
3 0.666667 0
0 1 0
0.333333 1 0
0.666667 1 0
1 1 0
1.33333 1 0
1.66667 1 0
2 1 0
2.33333 1 0
2.66667 1 0
3 1 0
0 0 0.333333
0.333333 0 0.333333
0.666667 0 0.333333
1 0 0.333333
1.33333 0 0.333333
1.66667 0 0.333333
2 0 0.333333
2.33333 0 0.333333
2.66667 0 0.333333
3 0 0.333333
0 0.333333 0.333333
0.333333 0.333333 0.333333
0.666667 0.333333 0.333333
1 0.333333 0.333333
1.33333 0.333333 0.333333
1.66667 0.333333 0.333333
2 0.333333 0.333333
2.33333 0.333333 0.333333
2.66667 0.333333 0.333333
3 0.333333 0.333333
0 0.666667 0.333333
0.333333 0.666667 0.333333
0.666667 0.666667 0.333333
1 0.666667 0.333333
1.33333 0.666667 0.333333
1.66667 0.666667 0.333333
2 0.666667 0.333333
2.33333 0.666667 0.333333
2.66667 0.666667 0.333333
3 0.666667 0.333333
0 1 0.333333
0.333333 1 0.333333
0.666667 1 0.333333
1 1 0.333333
1.33333 1 0.333333
1.66667 1 0.333333
2 1 0.333333
2.33333 1 0.333333
2.66667 1 0.333333
3 1 0.333333
0 0 0.666667
0.333333 0 0.666667
0.666667 0 0.666667
1 0 0.666667
1.33333 0 0.666667
1.66667 0 0.666667
2 0 0.666667
2.33333 0 0.666667
2.66667 0 0.666667
3 0 0.666667
0 0.333333 0.666667
0.333333 0.333333 0.666667
0.666667 0.333333 0.666667
1 0.333333 0.666667
1.33333 0.333333 0.666667
1.66667 0.333333 0.666667
2 0.333333 0.666667
2.33333 0.333333 0.666667
2.66667 0.333333 0.666667
3 0.333333 0.666667
0 0.666667 0.666667
0.333333 0.666667 0.666667
0.666667 0.666667 0.666667
1 0.666667 0.666667
1.33333 0.666667 0.666667
1.66667 0.666667 0.666667
2 0.666667 0.666667
2.33333 0.666667 0.666667
2.66667 0.666667 0.666667
3 0.666667 0.666667
0 1 0.666667
0.333333 1 0.666667
0.666667 1 0.666667
1 1 0.666667
1.33333 1 0.666667
1.66667 1 0.666667
2 1 0.666667
2.33333 1 0.666667
2.66667 1 0.666667
3 1 0.666667
0 0 1
0.333333 0 1
0.666667 0 1
1 0 1
1.33333 0 1
1.66667 0 1
2 0 1
2.33333 0 1
2.66667 0 1
3 0 1
0 0.333333 1
0.333333 0.333333 1
0.666667 0.333333 1
1 0.333333 1
1.33333 0.333333 1
1.66667 0.333333 1
2 0.333333 1
2.33333 0.333333 1
2.66667 0.333333 1
3 0.333333 1
0 0.666667 1
0.333333 0.666667 1
0.666667 0.666667 1
1 0.666667 1
1.33333 0.666667 1
1.66667 0.666667 1
2 0.666667 1
2.33333 0.666667 1
2.66667 0.666667 1
3 0.666667 1
0 1 1
0.333333 1 1
0.666667 1 1
1 1 1
1.33333 1 1
1.66667 1 1
2 1 1
2.33333 1 1
2.66667 1 1
3 1 1
0 0.166667 0
0.166667 0.333333 0.166667
0.166667 0.166667 0.166667
0.166667 0.166667 0
0.166667 0.333333 0
0.333333 0.333333 0.166667
0.166667 0.166667 0.333333
0.333333 0.166667 0.333333
0.166667 0 0.333333
0 0 0.166667
0.166667 0 0.166667
0 0.333333 0.166667
0 0.166667 0.166667
0.166667 0.333333 0.333333
0 0.166667 0.333333
0.333333 0 0.166667
0.166667 0 0
0.333333 0.166667 0.166667
0.333333 0.166667 0
0.5 0.333333 0.166667
0.5 0.166667 0.166667
0.5 0.166667 0
0.5 0.333333 0
0.666667 0.333333 0.166667
0.5 0.166667 0.333333
0.666667 0.166667 0.333333
0.5 0 0.333333
0.5 0 0.166667
0.5 0.333333 0.333333
0.666667 0 0.166667
0.5 0 0
0.666667 0.166667 0.166667
0.666667 0.166667 0
0.833333 0.333333 0.166667
0.833333 0.166667 0.166667
0.833333 0.166667 0
0.833333 0.333333 0
1 0.333333 0.166667
0.833333 0.166667 0.333333
1 0.166667 0.333333
0.833333 0 0.333333
0.833333 0 0.166667
0.833333 0.333333 0.333333
1 0 0.166667
0.833333 0 0
1 0.166667 0.166667
1 0.166667 0
1.16667 0.333333 0.166667
1.16667 0.166667 0.166667
1.16667 0.166667 0
1.16667 0.333333 0
1.33333 0.333333 0.166667
1.16667 0.166667 0.333333
1.33333 0.166667 0.333333
1.16667 0 0.333333
1.16667 0 0.166667
1.16667 0.333333 0.333333
1.33333 0 0.166667
1.16667 0 0
1.33333 0.166667 0.166667
1.33333 0.166667 0
1.5 0.333333 0.166667
1.5 0.166667 0.166667
1.5 0.166667 0
1.5 0.333333 0
1.66667 0.333333 0.166667
1.5 0.166667 0.333333
1.66667 0.166667 0.333333
1.5 0 0.333333
1.5 0 0.166667
1.5 0.333333 0.333333
1.66667 0 0.166667
1.5 0 0
1.66667 0.166667 0.166667
1.66667 0.166667 0
1.83333 0.333333 0.166667
1.83333 0.166667 0.166667
1.83333 0.166667 0
1.83333 0.333333 0
2 0.333333 0.166667
1.83333 0.166667 0.333333
2 0.166667 0.333333
1.83333 0 0.333333
1.83333 0 0.166667
1.83333 0.333333 0.333333
2 0 0.166667
1.83333 0 0
2 0.166667 0.166667
2 0.166667 0
2.16667 0.333333 0.166667
2.16667 0.166667 0.166667
2.16667 0.166667 0
2.16667 0.333333 0
2.33333 0.333333 0.166667
2.16667 0.166667 0.333333
2.33333 0.166667 0.333333
2.16667 0 0.333333
2.16667 0 0.166667
2.16667 0.333333 0.333333
2.33333 0 0.166667
2.16667 0 0
2.33333 0.166667 0.166667
2.33333 0.166667 0
2.5 0.333333 0.166667
2.5 0.166667 0.166667
2.5 0.166667 0
2.5 0.333333 0
2.66667 0.333333 0.166667
2.5 0.166667 0.333333
2.66667 0.166667 0.333333
2.5 0 0.333333
2.5 0 0.166667
2.5 0.333333 0.333333
2.66667 0 0.166667
2.5 0 0
2.66667 0.166667 0.166667
2.66667 0.166667 0
2.83333 0.333333 0.166667
2.83333 0.166667 0.166667
2.83333 0.166667 0
2.83333 0.333333 0
3 0.333333 0.166667
2.83333 0.166667 0.333333
3 0.166667 0.333333
2.83333 0 0.333333
2.83333 0 0.166667
2.83333 0.333333 0.333333
3 0 0.166667
2.83333 0 0
3 0.166667 0.166667
3 0.166667 0
0 0.5 0
0.166667 0.666667 0.166667
0.166667 0.5 0.166667
0.166667 0.5 0
0.166667 0.666667 0
0.333333 0.666667 0.166667
0.166667 0.5 0.333333
0.333333 0.5 0.333333
0 0.666667 0.166667
0 0.5 0.166667
0.166667 0.666667 0.333333
0 0.5 0.333333
0.333333 0.5 0.166667
0.333333 0.5 0
0.5 0.666667 0.166667
0.5 0.5 0.166667
0.5 0.5 0
0.5 0.666667 0
0.666667 0.666667 0.166667
0.5 0.5 0.333333
0.666667 0.5 0.333333
0.5 0.666667 0.333333
0.666667 0.5 0.166667
0.666667 0.5 0
0.833333 0.666667 0.166667
0.833333 0.5 0.166667
0.833333 0.5 0
0.833333 0.666667 0
1 0.666667 0.166667
0.833333 0.5 0.333333
1 0.5 0.333333
0.833333 0.666667 0.333333
1 0.5 0.166667
1 0.5 0
1.16667 0.666667 0.166667
1.16667 0.5 0.166667
1.16667 0.5 0
1.16667 0.666667 0
1.33333 0.666667 0.166667
1.16667 0.5 0.333333
1.33333 0.5 0.333333
1.16667 0.666667 0.333333
1.33333 0.5 0.166667
1.33333 0.5 0
1.5 0.666667 0.166667
1.5 0.5 0.166667
1.5 0.5 0
1.5 0.666667 0
1.66667 0.666667 0.166667
1.5 0.5 0.333333
1.66667 0.5 0.333333
1.5 0.666667 0.333333
1.66667 0.5 0.166667
1.66667 0.5 0
1.83333 0.666667 0.166667
1.83333 0.5 0.166667
1.83333 0.5 0
1.83333 0.666667 0
2 0.666667 0.166667
1.83333 0.5 0.333333
2 0.5 0.333333
1.83333 0.666667 0.333333
2 0.5 0.166667
2 0.5 0
2.16667 0.666667 0.166667
2.16667 0.5 0.166667
2.16667 0.5 0
2.16667 0.666667 0
2.33333 0.666667 0.166667
2.16667 0.5 0.333333
2.33333 0.5 0.333333
2.16667 0.666667 0.333333
2.33333 0.5 0.166667
2.33333 0.5 0
2.5 0.666667 0.166667
2.5 0.5 0.166667
2.5 0.5 0
2.5 0.666667 0
2.66667 0.666667 0.166667
2.5 0.5 0.333333
2.66667 0.5 0.333333
2.5 0.666667 0.333333
2.66667 0.5 0.166667
2.66667 0.5 0
2.83333 0.666667 0.166667
2.83333 0.5 0.166667
2.83333 0.5 0
2.83333 0.666667 0
3 0.666667 0.166667
2.83333 0.5 0.333333
3 0.5 0.333333
2.83333 0.666667 0.333333
3 0.5 0.166667
3 0.5 0
0 0.833333 0
0.166667 1 0.166667
0.166667 0.833333 0.166667
0.166667 0.833333 0
0.166667 1 0
0.333333 1 0.166667
0.166667 0.833333 0.333333
0.333333 0.833333 0.333333
0 1 0.166667
0 0.833333 0.166667
0.166667 1 0.333333
0 0.833333 0.333333
0.333333 0.833333 0.166667
0.333333 0.833333 0
0.5 1 0.166667
0.5 0.833333 0.166667
0.5 0.833333 0
0.5 1 0
0.666667 1 0.166667
0.5 0.833333 0.333333
0.666667 0.833333 0.333333
0.5 1 0.333333
0.666667 0.833333 0.166667
0.666667 0.833333 0
0.833333 1 0.166667
0.833333 0.833333 0.166667
0.833333 0.833333 0
0.833333 1 0
1 1 0.166667
0.833333 0.833333 0.333333
1 0.833333 0.333333
0.833333 1 0.333333
1 0.833333 0.166667
1 0.833333 0
1.16667 1 0.166667
1.16667 0.833333 0.166667
1.16667 0.833333 0
1.16667 1 0
1.33333 1 0.166667
1.16667 0.833333 0.333333
1.33333 0.833333 0.333333
1.16667 1 0.333333
1.33333 0.833333 0.166667
1.33333 0.833333 0
1.5 1 0.166667
1.5 0.833333 0.166667
1.5 0.833333 0
1.5 1 0
1.66667 1 0.166667
1.5 0.833333 0.333333
1.66667 0.833333 0.333333
1.5 1 0.333333
1.66667 0.833333 0.166667
1.66667 0.833333 0
1.83333 1 0.166667
1.83333 0.833333 0.166667
1.83333 0.833333 0
1.83333 1 0
2 1 0.166667
1.83333 0.833333 0.333333
2 0.833333 0.333333
1.83333 1 0.333333
2 0.833333 0.166667
2 0.833333 0
2.16667 1 0.166667
2.16667 0.833333 0.166667
2.16667 0.833333 0
2.16667 1 0
2.33333 1 0.166667
2.16667 0.833333 0.333333
2.33333 0.833333 0.333333
2.16667 1 0.333333
2.33333 0.833333 0.166667
2.33333 0.833333 0
2.5 1 0.166667
2.5 0.833333 0.166667
2.5 0.833333 0
2.5 1 0
2.66667 1 0.166667
2.5 0.833333 0.333333
2.66667 0.833333 0.333333
2.5 1 0.333333
2.66667 0.833333 0.166667
2.66667 0.833333 0
2.83333 1 0.166667
2.83333 0.833333 0.166667
2.83333 0.833333 0
2.83333 1 0
3 1 0.166667
2.83333 0.833333 0.333333
3 0.833333 0.333333
2.83333 1 0.333333
3 0.833333 0.166667
3 0.833333 0
0.166667 0.333333 0.5
0.166667 0.166667 0.5
0.333333 0.333333 0.5
0.166667 0.166667 0.666667
0.333333 0.166667 0.666667
0.166667 0 0.666667
0 0 0.5
0.166667 0 0.5
0 0.333333 0.5
0 0.166667 0.5
0.166667 0.333333 0.666667
0 0.166667 0.666667
0.333333 0 0.5
0.333333 0.166667 0.5
0.5 0.333333 0.5
0.5 0.166667 0.5
0.666667 0.333333 0.5
0.5 0.166667 0.666667
0.666667 0.166667 0.666667
0.5 0 0.666667
0.5 0 0.5
0.5 0.333333 0.666667
0.666667 0 0.5
0.666667 0.166667 0.5
0.833333 0.333333 0.5
0.833333 0.166667 0.5
1 0.333333 0.5
0.833333 0.166667 0.666667
1 0.166667 0.666667
0.833333 0 0.666667
0.833333 0 0.5
0.833333 0.333333 0.666667
1 0 0.5
1 0.166667 0.5
1.16667 0.333333 0.5
1.16667 0.166667 0.5
1.33333 0.333333 0.5
1.16667 0.166667 0.666667
1.33333 0.166667 0.666667
1.16667 0 0.666667
1.16667 0 0.5
1.16667 0.333333 0.666667
1.33333 0 0.5
1.33333 0.166667 0.5
[...]
POINT_DATA 931
SCALARS weights float 1
LOOKUP_TABLE default
3.7037 4.93827 4.93827 4.93827 4.93827 4.93827 4.93828 4.93827 4.93827 1.23457 4.93827 7.40741 7.40741 7.40741 7.40741 7.40741 7.40741 7.40741 7.40741 2.46914 4.93827 7.40741 7.40741 7.40741 7.40741 7.40741 7.40742 7.40741 7.40741 2.46914 1.23457 2.46914 2.46914 2.46914 2.46914 2.46914 2.46914 2.46914 2.46914 1.23457 4.93827 7.40741 7.40741 7.40741 7.40741 7.40741 7.40741 7.40741 7.40741 2.46913 7.40741 14.8148 14.8148 14.8148 14.8148 14.8148 14.8148 14.8148 14.8148 7.40741 7.40741 14.8148 14.8148 14.8148 14.8148 14.8148 14.8148 14.8148 14.8148 7.40741 2.46914 7.40741 7.40741 7.40741 7.40741 7.40741 7.40741 7.40741 7.40741 4.93827 4.93827 7.40741 7.40741 7.40741 7.40741 7.40741 7.40741 7.40741 7.40741 2.46913 7.40741 14.8148 14.8148 14.8148 14.8148 14.8148 14.8148 14.8148 14.8148 7.40741 7.40741 14.8148 14.8148 14.8148 14.8148 14.8148 14.8148 14.8148 14.8148 7.40741 2.46914 7.40741 7.40741 7.40741 7.40741 7.40741 7.40741 7.40741 7.40741 4.93827 1.23457 2.46914 2.46914 2.46914 2.46913 2.46914 2.46914 2.46913 2.46913 1.23457 2.46914 7.40741 7.40741 7.40741 7.40741 7.40741 7.40741 7.40741 7.40741 4.93827 2.46914 7.40741 7.40741 7.40741 7.40741 7.40741 7.40741 7.40741 7.40741 4.93827 1.23457 4.93827 4.93827 4.93827 4.93827 4.93827 4.93827 4.93827 4.93827 3.7037 1.23457 2.46914 3.7037 1.23457 1.85185 3.7037 2.46914 3.7037 1.85185 1.23457 1.23457 1.85185 1.23457 3.7037 1.85185 1.85185 1.23457 2.46914 1.85185 2.46914 3.7037 1.23457 1.85185 3.7037 2.46914 3.7037 1.85185 1.23457 3.7037 1.85185 1.23457 2.46914 1.85185 2.46914 3.7037 1.23457 1.85185 3.7037 2.46914 3.7037 1.85185 1.23457 3.7037 1.85185 1.23457 2.46914 1.85185 2.46914 3.70371 1.23457 1.85185 3.7037 2.46914 3.7037 1.85185 1.23457 3.7037 1.85185 1.23457 2.46914 1.85185 2.46914 3.70371 1.23457 1.85185 3.70371 2.46914 3.7037 1.85185 1.23457 3.7037 1.85185 1.23457 2.46914 1.85185 2.46914 3.7037 1.23457 1.85185 3.7037 2.46914 3.70371 1.85185 1.23457 3.7037 1.85185 1.23457 2.46914 1.85185 2.46914 3.70371 1.23457 1.85186 3.70371 2.46914 3.70371 1.85185 1.23457 3.70371 1.85185 1.23457 2.46914 1.85185 2.46914 3.7037 1.23457 1.85185 3.70371 2.46914 3.70371 1.85185 1.23457 3.7037 1.85185 1.23457 2.46914 1.85185 2.46914 3.7037 1.23457 1.85185 1.85185 2.46914 1.85185 1.85185 1.23457 3.7037 0.617284 1.23457 1.23457 0.617284 1.23457 2.46914 3.7037 1.23457 1.85185 3.7037 2.46914 3.7037 1.85185 1.23457 3.7037 1.85185 2.46914 1.85185 2.46914 3.7037 1.23457 1.85185 3.7037 2.46914 3.7037 3.7037 2.46914 1.85185 2.46914 3.7037 1.23457 1.85185 3.7037 2.46914 3.7037 3.7037 2.46914 1.85185 2.46914 3.7037 1.23457 1.85185 3.7037 2.46914 3.7037 3.7037 2.46914 1.85185 2.46914 3.70371 1.23457 1.85185 3.70371 2.46914 3.7037 3.70371 2.46914 1.85185 2.46914 3.7037 1.23457 1.85185 3.70371 2.46914 3.70371 3.7037 2.46914 1.85185 2.46914 3.70371 1.23457 1.85186 3.70371 2.46914 3.70371 3.70371 2.46914 1.85185 2.46914 3.7037 1.23457 1.85185 3.70371 2.46914 3.70371 3.7037 2.46914 1.85185 2.46914 3.7037 1.23457 1.85185 1.85185 2.46914 1.85185 3.7037 1.23457 0.617284 1.23457 1.23457 3.7037 1.23457 0.617284 1.85185 2.46914 3.7037 0.617284 1.23457 1.85185 1.85185 2.46914 1.85185 1.23457 3.7037 1.23457 0.617284 1.85185 2.46914 3.7037 1.85185 2.46914 1.85185 1.23457 3.7037 1.23457 0.617284 1.85185 2.46914 3.7037 1.85185 2.46914 1.85185 1.23457 3.7037 1.23457 0.617284 1.85185 2.46914 3.7037 1.85185 2.46913 1.85185 1.23457 3.70371 1.23457 0.617284 1.85185 2.46914 3.7037 1.85185 2.46914 1.85185 1.23457 3.7037 1.23457 0.617284 1.85185 2.46913 3.70371 1.85185 2.46914 1.85185 1.23457 3.70371 1.23457 0.617285 1.85185 2.46914 3.7037 1.85185 2.46914 1.85185 1.23457 3.7037 1.23457 0.617284 1.85185 2.46914 3.70371 1.85185 2.46914 1.85185 1.23457 3.7037 1.23457 0.617285 1.23457 2.46913 1.85185 1.85185 1.23457 0.617284 2.46914 3.7037 3.7037 2.46914 3.7037 1.85185 1.23457 1.23457 1.85185 1.23457 3.7037 1.85185 1.85185 2.46914 2.46914 3.7037 3.7037 2.46914 3.7037 1.85185 1.23457 3.7037 1.85185 2.46914 2.46914 3.7037 3.7037 2.46914 3.70371 1.85185 1.23457 3.7037 1.85185 2.46914 2.46914 3.7037 3.7037 2.46914 3.7037 1.85185 1.23457 3.7037 1.85185 2.46913 2.46914 3.70371 3.70371 2.46914 3.70371 1.85185 1.23457 3.7037 1.85185 2.46914 2.46914 3.7037 3.7037 2.46914 3.70371 1.85185 1.23457 3.7037 1.85185 2.46914 2.46914 3.70371 3.70371 2.46914 3.70371 1.85185 1.23457 3.70371 1.85185 2.46914 2.46914 3.7037 3.70371 2.46914 3.70371 1.85185 1.23457 3.7037 1.85185 2.46914 2.46914 3.7037 1.85185 2.46914 1.85185 1.85185 1.23457 3.7037 0.617284 1.23457 2.46914 3.7037 3.7037 2.46914 3.7037 1.85185 1.23457 3.7037 1.85185 2.46914 2.46914 3.7037 3.7037 2.46914 3.7037 3.7037 2.46914 2.46914 3.7037 3.7037 2.46914 3.7037 3.7037 2.46914 2.46914 3.7037 3.7037 2.46914 3.7037 3.7037 2.46914 2.46914 3.70371 3.70371 2.46914 3.70371 3.70371 2.46914 2.46914 3.7037 3.70371 2.46914 3.70371 3.7037 2.46914 2.46914 3.70371 3.70371 2.46914 3.70371 3.70371 2.46914 2.46914 3.7037 3.70371 2.46914 3.70371 3.7037 2.46914 2.46914 3.7037 1.85185 2.46914 1.85185 3.7037 1.23457 1.23457 3.7037 1.85185 2.46914 3.7037 0.617284 1.23457 1.85185 1.85185 2.46914 1.23457 3.7037 1.85185 2.46914 3.7037 1.85185 2.46914 1.23457 3.7037 1.85185 2.46914 3.7037 1.85185 2.46914 1.23457 3.7037 1.85185 2.46914 3.7037 1.85185 2.46913 1.23457 3.7037 1.85185 2.46914 3.7037 1.85185 2.46914 1.23457 3.7037 1.85185 2.46914 3.70371 1.85185 2.46914 1.23457 3.70371 1.85185 2.46914 3.70371 1.85185 2.46914 1.23457 3.7037 1.85185 2.46914 3.70371 1.85185 2.46914 1.23457 3.7037 1.23457 2.46914 1.85185 1.85185 1.23457 2.46914 3.7037 3.7037 1.23457 1.85185 0.617284 1.23457 1.23457 1.85185 1.23457 1.85185 0.617284 1.85185 2.46914 2.46914 3.7037 3.7037 1.23457 1.85185 0.617284 1.23457 1.85185 1.85185 2.46914 2.46914 3.7037 3.7037 1.23457 1.85185 0.617284 1.23457 1.85185 1.85185 2.46914 2.46914 3.7037 3.7037 1.23457 1.85185 0.617284 1.23457 1.85185 1.85185 2.46913 2.46914 3.7037 3.7037 1.23457 1.85185 0.617284 1.23457 1.85185 1.85185 2.46914 2.46914 3.7037 3.7037 1.23457 1.85185 0.617284 1.23457 1.85185 1.85185 2.46914 2.46914 3.70371 3.70371 1.23457 1.85185 0.617284 1.23457 1.85185 1.85185 2.46914 2.46914 3.7037 3.70371 1.23457 1.85185 0.617283 1.23457 1.85185 1.85185 2.46914 2.46914 3.7037 1.85185 1.23457 1.23457 0.617284 1.23457 1.85185 0.617284 1.23457 2.46914 3.7037 3.7037 1.23457 1.85185 1.85185 1.23457 1.85185 0.617284 2.46914 2.46914 3.7037 3.7037 1.23457 1.85185 1.85185 2.46914 2.46914 3.7037 3.7037 1.23457 1.85185 1.85185 2.46914 2.46914 3.7037 3.7037 1.23457 1.85185 1.85185 2.46914 2.46914 3.7037 3.70371 1.23457 1.85185 1.85185 2.46914 2.46914 3.7037 3.7037 1.23457 1.85185 1.85185 2.46914 2.46914 3.70371 3.70371 1.23457 1.85185 1.85185 2.46914 2.46914 3.7037 3.70371 1.23457 1.85185 1.85185 2.46914 2.46914 3.7037 1.85185 1.23457 1.23457 1.85185 1.23457 1.23457 3.7037 1.85185 1.23457 1.85185 0.617284 1.23457 1.23457 0.617284 2.46914 1.23457 3.7037 1.85185 1.23457 1.85185 1.23457 2.46914 1.23457 3.7037 1.85185 1.23457 1.85185 1.23457 2.46914 1.23457 3.7037 1.85185 1.23457 1.85185 1.23457 2.46913 1.23457 3.7037 1.85185 1.23457 1.85185 1.23457 2.46914 1.23457 3.7037 1.85185 1.23457 1.85185 1.23457 2.46914 1.23457 3.70371 1.85185 1.23457 1.85185 1.23457 2.46914 1.23457 3.7037 1.85185 1.23457 1.85185 1.23457 2.46914 1.23457 3.7037 1.23457 1.23457 1.23457 1.23457 1.23457 
VECTORS u float
-0.999 0 0  -0.827913 0.11769 0.119139  -0.608706 0.122339 0.12436  -0.368254 0.120576 0.123722  -0.120865 0.120299 0.12305  0.127408 0.12048 0.121685  0.377936 0.120708 0.122362  0.619428 0.12204 0.122667  0.859776 0.113483 0.118379  0.999 0 0  -0.999 0 0  -0.849262 0.0404081 0.126159  -0.615559 0.0410244 0.124226  -0.369092 0.0390689 0.12183  -0.121204 0.0394994 0.122036  0.128507 0.0397681 0.121775  0.375687 0.0401779 0.120885  0.623405 0.0403402 0.12163  0.862008 0.0340782 0.131987  0.999 0 0  -0.999 0 0  -0.85118 -0.0351425 0.126358  -0.616934 -0.0411234 0.122505  -0.370527 -0.0421541 0.121135  -0.124044 -0.042283 0.120756  0.124686 -0.0419067 0.121389  0.372949 -0.0407365 0.121025  0.61979 -0.040848 0.121957  0.861982 -0.0399483 0.128207  0.999 0 0  -0.999 0 0  -0.840495 -0.115583 0.114847  -0.615156 -0.123476 0.122144  -0.370885 -0.122872 0.120391  -0.124306 -0.123197 0.119805  0.123647 -0.122786 0.119866  0.370124 -0.122358 0.120766  0.616468 -0.122569 0.121655  0.843617 -0.1141 0.114354  0.999 0 0  -0.999 0 0  -0.848614 0.125705 0.0419388  -0.615119 0.123316 0.043555  -0.369519 0.121115 0.0423296  -0.121172 0.12104 0.0423686  0.127236 0.121178 0.0415715  0.37024 0.119686 0.0412477  0.62207 0.121167 0.0427613  0.867673 0.128875 0.0374759  0.999 0 0  -0.999 0 0  -0.877261 0.0414217 0.0422984  -0.620255 0.0410293 0.0425196  -0.370965 0.0393262 0.0405059  -0.121915 0.0395132 0.0405708  0.129335 0.0406243 0.0412826  0.379314 0.0410626 0.0416471  0.622992 0.0392903 0.0405496  0.872862 0.0382531 0.039573  0.999 0 0  -0.999 0 0  -0.876909 -0.039877 0.043347  -0.620504 -0.0406988 0.0410003  -0.371251 -0.0417634 0.03996  -0.1237 -0.0412776 0.0399408  0.126879 -0.0404555 0.0414473  0.372535 -0.0411389 0.039622  0.62609 -0.0401135 0.0413393  0.872901 -0.0427632 0.0400578  0.999 0 0  -0.999 0 0  -0.870258 -0.128709 0.0386756  -0.616792 -0.122308 0.0392621  -0.370406 -0.122129 0.0388312  -0.124858 -0.12171 0.0387295  0.122908 -0.121915 0.0388038  0.36994 -0.121364 0.0399473  0.61539 -0.122527 0.0398627  0.852206 -0.126416 0.0352226  0.999 0 0  -0.999 0 0  -0.850565 0.127278 -0.0334687  -0.616324 0.122844 -0.0387355  -0.369279 0.121189 -0.0391198  -0.120497 0.121535 -0.0386676  0.125444 0.121648 -0.0391172  0.375103 0.121173 -0.0390499  0.617956 0.1227 -0.0384111  0.869133 0.127147 -0.0373811  0.999 0 0  -0.999 0 0  -0.876474 0.0435409 -0.0385988  -0.62048 0.0414793 -0.0388573  -0.37144 0.0396447 -0.0403343  -0.122203 0.0405906 -0.0396356  0.124879 0.0410617 -0.0400754  0.369298 0.0396983 -0.0406892  0.626031 0.0413356 -0.0391118  0.873941 0.0400257 -0.040922  0.999 0 0  -0.999 0 0  -0.875257 -0.0377777 -0.0376216  -0.619643 -0.0389258 -0.0391372  -0.372018 -0.040803 -0.0404635  -0.124938 -0.0408008 -0.0410842  0.123912 -0.0396626 -0.0400362  0.370755 -0.0401417 -0.0403692  0.621135 -0.039886 -0.0398419  0.87323 -0.0414788 -0.0405943  0.999 0 0  -0.999 0 0  -0.870185 -0.130808 -0.0381701  -0.615973 -0.119754 -0.041948  -0.370568 -0.120531 -0.0417826  -0.124475 -0.12058 -0.0424936  0.123773 -0.119659 -0.0416743  0.365584 -0.122097 -0.0422637  0.611362 -0.122027 -0.0411555  0.85122 -0.124434 -0.0394101  0.999 0 0  -0.999 0 0  -0.840348 0.115423 -0.113531  -0.614579 0.123743 -0.120601  -0.369541 0.12229 -0.119961  -0.123202 0.122064 -0.119401  0.12445 0.122115 -0.119815  0.370358 0.12225 -0.120644  0.615489 0.122392 -0.121665  0.842625 0.115105 -0.112553  0.999 0 0  -0.999 0 0  -0.868941 0.040093 -0.126603  -0.616502 0.0406151 -0.120718  -0.369186 0.0411223 -0.120156  -0.120184 0.041456 -0.119611  0.125198 0.0419813 -0.1207  0.371344 0.0411294 -0.121662  0.617274 0.0408545 -0.121374  0.852158 0.0349938 -0.124158  0.999 0 0  -0.999 0 0  -0.869011 -0.0348398 -0.129447  -0.616262 -0.0400069 -0.119889  -0.370438 -0.0394214 -0.120124  -0.125211 -0.0400302 -0.121559  0.119989 -0.0390016 -0.121191  0.365056 -0.0404287 -0.122088  0.612943 -0.0408614 -0.122449  0.850126 -0.0389712 -0.122927  0.999 0 0  -0.999 0 0  -0.860758 -0.114715 -0.119553  -0.614477 -0.119325 -0.121714  -0.370145 -0.119465 -0.121847  -0.125602 -0.119913 -0.122983  0.120445 -0.119366 -0.122129  0.362887 -0.120741 -0.12279  0.608537 -0.122014 -0.121903  0.827196 -0.118031 -0.117613  0.999 0 0  -0.999 1.49012e-08 0  -0.970489 0.0212228 0.045942  -0.970161 0.0440922 0.0449704  -0.948325 0.0398983 0.0859094  -0.944195 0.021771 0.0908059  -0.865355 0.0409447 0.0850724  -0.970428 0.0454201 0.0221997  -0.865316 0.0843487 0.0422671  -0.943892 0.0903839 0.0228356  -0.999 0 1.49012e-08  -0.948598 0.0845517 0.0409156  -0.999 0 1.49012e-08  -0.999 1.49012e-08 1.49012e-08  -0.968984 0.0221811 0.0228277  -0.999 1.49012e-08 0  -0.845895 0.120516 0.0801711  -0.924112 0.0732922 0.0749165  -0.860545 0.0803666 0.0816393  -0.845826 0.0787422 0.121742  -0.741564 0.0401513 0.0837619  -0.737717 0.080176 0.0816191  -0.732186 0.0797139 0.119747  -0.736605 0.040001 0.121982  -0.619386 0.0408803 0.0834437  -0.741334 0.0828189 0.0417062  -0.619073 0.0822425 0.0428608  -0.73619 0.121186 0.0420963  -0.732081 0.118538 0.0816815  -0.747599 0.0414344 0.0425564  -0.614906 0.122581 0.0838772  -0.724797 0.116514 0.118287  -0.618675 0.0819316 0.0836544  -0.614924 0.0816554 0.12411  -0.494429 0.0400801 0.0820051  -0.494161 0.080513 0.0822409  -0.492501 0.0802813 0.122041  -0.493436 0.0395848 0.121759  -0.370681 0.0394103 0.081175  -0.494205 0.0809946 0.0420885  -0.370727 0.0802387 0.0415817  -0.493569 0.120886 0.0424412  -0.492636 0.120532 0.0828802  -0.49423 0.0404513 0.0417535  -0.370012 0.120789 0.0828626  -0.49088 0.119672 0.12216  -0.371011 0.0802168 0.0822428  -0.369838 0.0797436 0.122777  -0.245921 0.0392367 0.0813511  -0.24611 0.0796699 0.0818314  -0.24535 0.079405 0.122339  -0.245583 0.0388588 0.1216  -0.12185 0.0393841 0.0812979  -0.245984 0.0802309 0.0414414  -0.121758 0.0802871 0.0414862  -0.24597 0.12057 0.0420237  -0.245163 0.120245 0.0826784  -0.245887 0.0395927 0.040832  -0.121451 0.120364 0.0824973  -0.24504 0.119553 0.122764  -0.121643 0.0798507 0.0818989  -0.121526 0.0796905 0.122392  0.00287247 0.039589 0.0814439  0.00347638 0.0803708 0.0819148  0.00322747 0.0799942 0.122151  0.00314867 0.0393216 0.121926  0.12769 0.0400761 0.081368  0.00287127 0.0806379 0.0412026  0.12719 0.0806857 0.0412512  0.00271165 0.121103 0.0416897  0.0030998 0.120697 0.0820506  0.00343728 0.0399756 0.0408267  0.126531 0.120583 0.0813605  0.00298679 0.120338 0.122183  0.126575 0.0802154 0.0812867  0.127035 0.0799166 0.121571  0.251816 0.0397488 0.0814309  0.25141 0.0805856 0.0815434  0.251611 0.0800535 0.121688  0.252066 0.0395087 0.121549  0.3756 0.0404436 0.0811613  0.251015 0.0808508 0.0408055  0.373614 0.0803068 0.041566  0.248745 0.120582 0.0410454  0.250007 0.120641 0.0811718  0.252711 0.0401582 0.0407083  0.374219 0.120079 0.0820276  0.253101 0.120693 0.121896  0.373333 0.0800354 0.0814342  0.375207 0.0803165 0.121451  0.497377 0.0397705 0.081468  0.496372 0.0798508 0.0815105  0.499221 0.0803745 0.12193  0.498237 0.0390562 0.121499  0.622165 0.0401441 0.0816583  0.49612 0.0802624 0.041469  0.62163 0.0806346 0.0419482  0.495301 0.12063 0.0411997  0.49813 0.120193 0.0825615  0.499358 0.0397254 0.0409585  0.618668 0.120558 0.082221  0.498597 0.120285 0.122278  0.620397 0.0808709 0.0822231  0.619061 0.0802552 0.120839  0.743775 0.0394463 0.082109  0.743128 0.0786674 0.0808626  0.734284 0.0752072 0.120148  0.738503 0.0382579 0.123264  0.865578 0.0365689 0.0843916  0.744166 0.0802576 0.0409484  0.871031 0.0829337 0.0386225  0.74052 0.121727 0.0409063  0.733662 0.117578 0.0795078  0.749283 0.0397847 0.0407143  0.859838 0.121263 0.0766632  0.730908 0.114782 0.119372  0.869636 0.0768398 0.0788865  0.863677 0.0729479 0.124381  0.966482 0.0221293 0.0512434  0.965693 0.0456879 0.0471226  0.966223 0.0456702 0.072465  0.966547 0.0227689 0.079845  0.999 0 1.49012e-08  0.967664 0.0500658 0.0229621  0.999 1.49012e-08 0  0.96792 0.0777741 0.0229481  0.96621 0.0722549 0.0464178  0.968451 0.0243546 0.0247743  0.999 0 1.49012e-08  0.966142 0.0729282 0.0724445  0.999 1.49012e-08 1.49012e-08  0.999 1.49012e-08 0  -0.999 0 0  -0.970488 -0.023877 0.0457519  -0.970229 -0.00052768 0.0476812  -0.949825 -0.00159928 0.0876748  -0.945302 -0.0205441 0.089711  -0.865342 -0.0373158 0.0857647  -0.969558 -0.0018827 0.0239517  -0.87593 0.00109762 0.0440112  -0.999 0 1.49012e-08  -0.999 0 1.49012e-08  -0.969045 -0.0246854 0.0230162  -0.999 0 0  -0.867053 0.00188464 0.0862748  -0.853858 0.00313354 0.127472  -0.741666 -0.0389149 0.0837304  -0.743993 0.000554681 0.0839654  -0.740002 0.00134474 0.123181  -0.737599 -0.0379719 0.121928  -0.619395 -0.041139 0.0820132  -0.746713 0.000953376 0.0429256  -0.62066 6.02007e-06 0.0417935  -0.747189 -0.0399282 0.0428037  -0.621241 3.58224e-05 0.0832617  -0.619033 -8.86321e-05 0.123859  -0.494589 -0.0410271 0.0812348  -0.495818 -0.000502944 0.081494  -0.495008 -0.000499785 0.121739  -0.494319 -0.0412139 0.120986  -0.371216 -0.0418165 0.0805536  -0.494886 -0.000450015 0.0412449  -0.370828 -0.00104904 0.0403533  -0.494294 -0.040857 0.0410073  -0.371678 -0.0012475 0.0808319  -0.37102 -0.00160202 0.121486  -0.247026 -0.0415943 0.0804215  -0.247007 -0.0012573 0.080948  -0.246809 -0.00148982 0.121411  -0.247362 -0.0419471 0.120561  -0.123462 -0.0416656 0.0804662  -0.246869 -0.00100371 0.0406051  -0.122678 -0.000753969 0.0404919  -0.246996 -0.0413638 0.0400406  -0.122642 -0.000996917 0.0810941  -0.12271 -0.00148803 0.121322  0.00125289 -0.0415769 0.0808524  0.00236726 -0.000661969 0.0814766  0.00196445 -0.00137621 0.121514  0.000712752 -0.0419613 0.121121  0.125297 -0.0413228 0.0812722  0.00203788 -0.000550032 0.0406429  0.126905 -0.000263304 0.0408792  0.00132227 -0.0410385 0.0403545  0.126105 -0.000692636 0.0811519  0.126413 -0.00122091 0.121366  0.248705 -0.0410852 0.0804238  0.250433 -0.000756264 0.0805559  0.251581 -0.000726253 0.121185  0.248643 -0.0413908 0.120838  0.372777 -0.0407287 0.0804472  0.250771 -0.000321925 0.0404557  0.375268 -0.000194937 0.0407964  0.249506 -0.0408286 0.0401478  0.3745 -0.00048995 0.080717  0.37436 -0.000832915 0.120606  0.496955 -0.0411445 0.0813547  0.49968 -7.59959e-05 0.0812609  0.499991 -0.000687838 0.121812  0.495303 -0.0410632 0.121609  0.621056 -0.0410229 0.0812308  0.500729 0.0004403 0.0409409  0.623327 -0.000569969 0.0418931  0.498138 -0.0410925 0.0404011  0.621795 -0.000942439 0.0820271  0.620518 -0.00232625 0.120794  0.741009 -0.0418191 0.0802838  0.746821 -0.000298083 0.0818436  0.739679 -0.001416 0.120331  0.732521 -0.0415995 0.120245  0.866853 -0.0408089 0.0827101  0.748311 -0.000797004 0.0417433  0.875169 -0.000886559 0.040779  0.747658 -0.0418735 0.0404066  0.873544 -0.000424534 0.0845571  0.86913 -0.00121939 0.130815  0.966283 -0.0226198 0.0505875  0.966527 -0.000694364 0.0517038  0.966813 -0.0028272 0.0779838  0.966423 -0.0243344 0.0785567  0.999 0 1.49012e-08  0.969052 0.00116092 0.0254268  0.999 0 0  0.968213 -0.0224732 0.024893  0.999 0 1.49012e-08  0.999 0 0  -0.999 0 0  -0.968553 -0.0723606 0.0467895  -0.968387 -0.0478244 0.0449865  -0.943237 -0.0411087 0.0874484  -0.939758 -0.0628722 0.0935466  -0.857512 -0.121965 0.0778197  -0.967896 -0.0504946 0.0229296  -0.871669 -0.0828894 0.0412342  -0.999 0 1.49012e-08  -0.999 0 1.49012e-08  -0.968331 -0.0772907 0.0218534  -0.999 0 0  -0.862099 -0.0781832 0.0820071  -0.848418 -0.0742834 0.120386  -0.734882 -0.117191 0.0803525  -0.740849 -0.0787851 0.0818304  -0.7364 -0.0774258 0.120957  -0.73158 -0.118072 0.115999  -0.616102 -0.121378 0.0822552  -0.741681 -0.0806167 0.0421776  -0.618226 -0.0815461 0.0404634  -0.737156 -0.122108 0.0413308  -0.618404 -0.0819036 0.0816783  -0.616928 -0.0821035 0.122488  -0.493588 -0.121825 0.0802764  -0.494483 -0.0816109 0.0804293  -0.494274 -0.0815485 0.120599  -0.493584 -0.122162 0.119569  -0.370712 -0.122027 0.0798346  -0.493203 -0.0815263 0.040407  -0.370124 -0.0818337 0.0394412  -0.491417 -0.121499 0.0399118  -0.370846 -0.082084 0.0799426  -0.370793 -0.082521 0.120604  -0.247516 -0.122062 0.0792975  -0.24729 -0.0819441 0.0798387  -0.247402 -0.0822778 0.120164  -0.247597 -0.122498 0.119578  -0.123887 -0.122285 0.079389  -0.247037 -0.0817144 0.039543  -0.123608 -0.0814244 0.0394515  -0.246985 -0.12161 0.0390184  -0.123356 -0.0819352 0.0800183  -0.123817 -0.0827411 0.120299  -6.74725e-05 -0.122511 0.0792466  0.000242591 -0.0822793 0.0799121  0.000136137 -0.0826664 0.120293  -0.000160694 -0.122956 0.119689  0.123925 -0.122142 0.0794014  0.000233531 -0.0816224 0.0396189  0.12474 -0.0813113 0.0399161  -0.000550985 -0.121795 0.038816  0.124524 -0.0818302 0.0801221  0.124315 -0.0823662 0.120419  0.24764 -0.121721 0.0793248  