# vtk DataFile Version 5.1
vtk output
ASCII

DATASET UNSTRUCTURED_GRID
POINTS 637 float
0 0 0
0.333333 0 0
0.666667 0 0
1 0 0
1.33333 0 0
1.66667 0 0
2 0 0
0 0.333333 0
0.333333 0.333333 0
0.666667 0.333333 0
1 0.333333 0
1.33333 0.333333 0
1.66667 0.333333 0
2 0.333333 0
0 0.666667 0
0.333333 0.666667 0
0.666667 0.666667 0
1 0.666667 0
1.33333 0.666667 0
1.66667 0.666667 0
2 0.666667 0
0 1 0
0.333333 1 0
0.666667 1 0
1 1 0
1.33333 1 0
1.66667 1 0
2 1 0
0 0 0.333333
0.333333 0 0.333333
0.666667 0 0.333333
1 0 0.333333
1.33333 0 0.333333
1.66667 0 0.333333
2 0 0.333333
0 0.333333 0.333333
0.333333 0.333333 0.333333
0.666667 0.333333 0.333333
1 0.333333 0.333333
1.33333 0.333333 0.333333
1.66667 0.333333 0.333333
2 0.333333 0.333333
0 0.666667 0.333333
0.333333 0.666667 0.333333
0.666667 0.666667 0.333333
1 0.666667 0.333333
1.33333 0.666667 0.333333
1.66667 0.666667 0.333333
2 0.666667 0.333333
0 1 0.333333
0.333333 1 0.333333
0.666667 1 0.333333
1 1 0.333333
1.33333 1 0.333333
1.66667 1 0.333333
2 1 0.333333
0 0 0.666667
0.333333 0 0.666667
0.666667 0 0.666667
1 0 0.666667
1.33333 0 0.666667
1.66667 0 0.666667
2 0 0.666667
0 0.333333 0.666667
0.333333 0.333333 0.666667
0.666667 0.333333 0.666667
1 0.333333 0.666667
1.33333 0.333333 0.666667
1.66667 0.333333 0.666667
2 0.333333 0.666667
0 0.666667 0.666667
0.333333 0.666667 0.666667
0.666667 0.666667 0.666667
1 0.666667 0.666667
1.33333 0.666667 0.666667
1.66667 0.666667 0.666667
2 0.666667 0.666667
0 1 0.666667
0.333333 1 0.666667
0.666667 1 0.666667
1 1 0.666667
1.33333 1 0.666667
1.66667 1 0.666667
2 1 0.666667
0 0 1
0.333333 0 1
0.666667 0 1
1 0 1
1.33333 0 1
1.66667 0 1
2 0 1
0 0.333333 1
0.333333 0.333333 1
0.666667 0.333333 1
1 0.333333 1
1.33333 0.333333 1
1.66667 0.333333 1
2 0.333333 1
0 0.666667 1
0.333333 0.666667 1
0.666667 0.666667 1
1 0.666667 1
1.33333 0.666667 1
1.66667 0.666667 1
2 0.666667 1
0 1 1
0.333333 1 1
0.666667 1 1
1 1 1
1.33333 1 1
1.66667 1 1
2 1 1
0 0.166667 0
0.166667 0.333333 0.166667
0.166667 0.166667 0.166667
0.166667 0.166667 0
0.166667 0.333333 0
0.333333 0.333333 0.166667
0.166667 0.166667 0.333333
0.333333 0.166667 0.333333
0.166667 0 0.333333
0 0 0.166667
0.166667 0 0.166667
0 0.333333 0.166667
0 0.166667 0.166667
0.166667 0.333333 0.333333
0 0.166667 0.333333
0.333333 0 0.166667
0.166667 0 0
0.333333 0.166667 0.166667
0.333333 0.166667 0
0.5 0.333333 0.166667
0.5 0.166667 0.166667
0.5 0.166667 0
0.5 0.333333 0
0.666667 0.333333 0.166667
0.5 0.166667 0.333333
0.666667 0.166667 0.333333
0.5 0 0.333333
0.5 0 0.166667
0.5 0.333333 0.333333
0.666667 0 0.166667
0.5 0 0
0.666667 0.166667 0.166667
0.666667 0.166667 0
0.833333 0.333333 0.166667
0.833333 0.166667 0.166667
0.833333 0.166667 0
0.833333 0.333333 0
1 0.333333 0.166667
0.833333 0.166667 0.333333
1 0.166667 0.333333
0.833333 0 0.333333
0.833333 0 0.166667
0.833333 0.333333 0.333333
1 0 0.166667
0.833333 0 0
1 0.166667 0.166667
1 0.166667 0
1.16667 0.333333 0.166667
1.16667 0.166667 0.166667
1.16667 0.166667 0
1.16667 0.333333 0
1.33333 0.333333 0.166667
1.16667 0.166667 0.333333
1.33333 0.166667 0.333333
1.16667 0 0.333333
1.16667 0 0.166667
1.16667 0.333333 0.333333
1.33333 0 0.166667
1.16667 0 0
1.33333 0.166667 0.166667
1.33333 0.166667 0
1.5 0.333333 0.166667
1.5 0.166667 0.166667
1.5 0.166667 0
1.5 0.333333 0
1.66667 0.333333 0.166667
1.5 0.166667 0.333333
1.66667 0.166667 0.333333
1.5 0 0.333333
1.5 0 0.166667
1.5 0.333333 0.333333
1.66667 0 0.166667
1.5 0 0
1.66667 0.166667 0.166667
1.66667 0.166667 0
1.83333 0.333333 0.166667
1.83333 0.166667 0.166667
1.83333 0.166667 0
1.83333 0.333333 0
2 0.333333 0.166667
1.83333 0.166667 0.333333
2 0.166667 0.333333
1.83333 0 0.333333
1.83333 0 0.166667
1.83333 0.333333 0.333333
2 0 0.166667
1.83333 0 0
2 0.166667 0.166667
2 0.166667 0
0 0.5 0
0.166667 0.666667 0.166667
0.166667 0.5 0.166667
0.166667 0.5 0
0.166667 0.666667 0
0.333333 0.666667 0.166667
0.166667 0.5 0.333333
0.333333 0.5 0.333333
0 0.666667 0.166667
0 0.5 0.166667
0.166667 0.666667 0.333333
0 0.5 0.333333
0.333333 0.5 0.166667
0.333333 0.5 0
0.5 0.666667 0.166667
0.5 0.5 0.166667
0.5 0.5 0
0.5 0.666667 0
0.666667 0.666667 0.166667
0.5 0.5 0.333333
0.666667 0.5 0.333333
0.5 0.666667 0.333333
0.666667 0.5 0.166667
0.666667 0.5 0
0.833333 0.666667 0.166667
0.833333 0.5 0.166667
0.833333 0.5 0
0.833333 0.666667 0
1 0.666667 0.166667
0.833333 0.5 0.333333
1 0.5 0.333333
0.833333 0.666667 0.333333
1 0.5 0.166667
1 0.5 0
1.16667 0.666667 0.166667
1.16667 0.5 0.166667
1.16667 0.5 0
1.16667 0.666667 0
1.33333 0.666667 0.166667
1.16667 0.5 0.333333
1.33333 0.5 0.333333
1.16667 0.666667 0.333333
1.33333 0.5 0.166667
1.33333 0.5 0
1.5 0.666667 0.166667
1.5 0.5 0.166667
1.5 0.5 0
1.5 0.666667 0
1.66667 0.666667 0.166667
1.5 0.5 0.333333
1.66667 0.5 0.333333
1.5 0.666667 0.333333
1.66667 0.5 0.166667
1.66667 0.5 0
1.83333 0.666667 0.166667
1.83333 0.5 0.166667
1.83333 0.5 0
1.83333 0.666667 0
2 0.666667 0.166667
1.83333 0.5 0.333333
2 0.5 0.333333
1.83333 0.666667 0.333333
2 0.5 0.166667
2 0.5 0
0 0.833333 0
0.166667 1 0.166667
0.166667 0.833333 0.166667
0.166667 0.833333 0
0.166667 1 0
0.333333 1 0.166667
0.166667 0.833333 0.333333
0.333333 0.833333 0.333333
0 1 0.166667
0 0.833333 0.166667
0.166667 1 0.333333
0 0.833333 0.333333
0.333333 0.833333 0.166667
0.333333 0.833333 0
0.5 1 0.166667
0.5 0.833333 0.166667
0.5 0.833333 0
0.5 1 0
0.666667 1 0.166667
0.5 0.833333 0.333333
0.666667 0.833333 0.333333
0.5 1 0.333333
0.666667 0.833333 0.166667
0.666667 0.833333 0
0.833333 1 0.166667
0.833333 0.833333 0.166667
0.833333 0.833333 0
0.833333 1 0
1 1 0.166667
0.833333 0.833333 0.333333
1 0.833333 0.333333
0.833333 1 0.333333
1 0.833333 0.166667
1 0.833333 0
1.16667 1 0.166667
1.16667 0.833333 0.166667
1.16667 0.833333 0
1.16667 1 0
1.33333 1 0.166667
1.16667 0.833333 0.333333
1.33333 0.833333 0.333333
1.16667 1 0.333333
1.33333 0.833333 0.166667
1.33333 0.833333 0
1.5 1 0.166667
1.5 0.833333 0.166667
1.5 0.833333 0
1.5 1 0
1.66667 1 0.166667
1.5 0.833333 0.333333
1.66667 0.833333 0.333333
1.5 1 0.333333
1.66667 0.833333 0.166667
1.66667 0.833333 0
1.83333 1 0.166667
1.83333 0.833333 0.166667
1.83333 0.833333 0
1.83333 1 0
2 1 0.166667
1.83333 0.833333 0.333333
2 0.833333 0.333333
1.83333 1 0.333333
2 0.833333 0.166667
2 0.833333 0
0.166667 0.333333 0.5
0.166667 0.166667 0.5
0.333333 0.333333 0.5
0.166667 0.166667 0.666667
0.333333 0.166667 0.666667
0.166667 0 0.666667
0 0 0.5
0.166667 0 0.5
0 0.333333 0.5
0 0.166667 0.5
0.166667 0.333333 0.666667
0 0.166667 0.666667
0.333333 0 0.5
0.333333 0.166667 0.5
0.5 0.333333 0.5
0.5 0.166667 0.5
0.666667 0.333333 0.5
0.5 0.166667 0.666667
0.666667 0.166667 0.666667
0.5 0 0.666667
0.5 0 0.5
0.5 0.333333 0.666667
0.666667 0 0.5
0.666667 0.166667 0.5
0.833333 0.333333 0.5
0.833333 0.166667 0.5
1 0.333333 0.5
0.833333 0.166667 0.666667
1 0.166667 0.666667
0.833333 0 0.666667
0.833333 0 0.5
0.833333 0.333333 0.666667
1 0 0.5
1 0.166667 0.5
1.16667 0.333333 0.5
1.16667 0.166667 0.5
1.33333 0.333333 0.5
1.16667 0.166667 0.666667
1.33333 0.166667 0.666667
1.16667 0 0.666667
1.16667 0 0.5
1.16667 0.333333 0.666667
1.33333 0 0.5
1.33333 0.166667 0.5
1.5 0.333333 0.5
1.5 0.166667 0.5
1.66667 0.333333 0.5
1.5 0.166667 0.666667
1.66667 0.166667 0.666667
1.5 0 0.666667
1.5 0 0.5
1.5 0.333333 0.666667
1.66667 0 0.5
1.66667 0.166667 0.5
1.83333 0.333333 0.5
1.83333 0.166667 0.5
2 0.333333 0.5
1.83333 0.166667 0.666667
2 0.166667 0.666667
1.83333 0 0.666667
1.83333 0 0.5
1.83333 0.333333 0.666667
2 0 0.5
2 0.166667 0.5
0.166667 0.666667 0.5
0.166667 0.5 0.5
0.333333 0.666667 0.5
0.166667 0.5 0.666667
0.333333 0.5 0.666667
0 0.666667 0.5
0 0.5 0.5
0.166667 0.666667 0.666667
0 0.5 0.666667
0.333333 0.5 0.5
0.5 0.666667 0.5
0.5 0.5 0.5
0.666667 0.666667 0.5
0.5 0.5 0.666667
0.666667 0.5 0.666667
0.5 0.666667 0.666667
0.666667 0.5 0.5
0.833333 0.666667 0.5
0.833333 0.5 0.5
1 0.666667 0.5
0.833333 0.5 0.666667
1 0.5 0.666667
0.833333 0.666667 0.666667
1 0.5 0.5
1.16667 0.666667 0.5
1.16667 0.5 0.5
1.33333 0.666667 0.5
1.16667 0.5 0.666667
1.33333 0.5 0.666667
1.16667 0.666667 0.666667
1.33333 0.5 0.5
1.5 0.666667 0.5
1.5 0.5 0.5
1.66667 0.666667 0.5
1.5 0.5 0.666667
1.66667 0.5 0.666667
1.5 0.666667 0.666667
1.66667 0.5 0.5
1.83333 0.666667 0.5
1.83333 0.5 0.5
2 0.666667 0.5
1.83333 0.5 0.666667
2 0.5 0.666667
1.83333 0.666667 0.666667
2 0.5 0.5
0.166667 1 0.5
0.166667 0.833333 0.5
0.333333 1 0.5
0.166667 0.833333 0.666667
0.333333 0.833333 0.666667
0 1 0.5
0 0.833333 0.5
0.166667 1 0.666667
0 0.833333 0.666667
0.333333 0.833333 0.5
0.5 1 0.5
0.5 0.833333 0.5
0.666667 1 0.5
0.5 0.833333 0.666667
0.666667 0.833333 0.666667
0.5 1 0.666667
0.666667 0.833333 0.5
0.833333 1 0.5
0.833333 0.833333 0.5
1 1 0.5
0.833333 0.833333 0.666667
1 0.833333 0.666667
0.833333 1 0.666667
1 0.833333 0.5
1.16667 1 0.5
1.16667 0.833333 0.5
1.33333 1 0.5
1.16667 0.833333 0.666667
1.33333 0.833333 0.666667
1.16667 1 0.666667
1.33333 0.833333 0.5
1.5 1 0.5
1.5 0.833333 0.5
1.66667 1 0.5
1.5 0.833333 0.666667
1.66667 0.833333 0.666667
1.5 1 0.666667
1.66667 0.833333 0.5
1.83333 1 0.5
1.83333 0.833333 0.5
2 1 0.5
1.83333 0.833333 0.666667
2 0.833333 0.666667
1.83333 1 0.666667
2 0.833333 0.5
0.166667 0.333333 0.833333
0.166667 0.166667 0.833333
0.333333 0.333333 0.833333
0.166667 0.166667 1
0.333333 0.166667 1
0.166667 0 1
0 0 0.833333
0.166667 0 0.833333
0 0.333333 0.833333
0 0.166667 0.833333
0.166667 0.333333 1
0 0.166667 1
0.333333 0 0.833333
0.333333 0.166667 0.833333
0.5 0.333333 0.833333
0.5 0.166667 0.833333
0.666667 0.333333 0.833333
0.5 0.166667 1
0.666667 0.166667 1
0.5 0 1
0.5 0 0.833333
0.5 0.333333 1
0.666667 0 0.833333
0.666667 0.166667 0.833333
0.833333 0.333333 0.833333
0.833333 0.166667 0.833333
1 0.333333 0.833333
0.833333 0.166667 1
1 0.166667 1
0.833333 0 1
0.833333 0 0.833333
0.833333 0.333333 1
1 0 0.833333
1 0.166667 0.833333
1.16667 0.333333 0.833333
1.16667 0.166667 0.833333
1.33333 0.333333 0.833333
1.16667 0.166667 1
1.33333 0.166667 1
1.16667 0 1
[...]
POINT_DATA 637
SCALARS weights float 1
LOOKUP_TABLE default
3.7037 4.93827 4.93827 4.93827 4.93827 4.93827 1.23457 4.93827 7.40741 7.40741 7.40741 7.40741 7.40741 2.46914 4.93827 7.40741 7.40741 7.40741 7.40741 7.40741 2.46914 1.23457 2.46914 2.46914 2.46914 2.46914 2.46914 1.23457 4.93827 7.40741 7.40741 7.40741 7.40741 7.40741 2.46914 7.40741 14.8148 14.8148 14.8148 14.8148 14.8148 7.40741 7.40741 14.8148 14.8148 14.8148 14.8148 14.8148 7.40741 2.46914 7.40741 7.40741 7.40741 7.40741 7.40741 4.93827 4.93827 7.40741 7.40741 7.40741 7.40741 7.40741 2.46914 7.40741 14.8148 14.8148 14.8148 14.8148 14.8148 7.40741 7.40741 14.8148 14.8148 14.8148 14.8148 14.8148 7.40741 2.46914 7.40741 7.40741 7.40741 7.40741 7.40741 4.93827 1.23457 2.46914 2.46914 2.46914 2.46913 2.46914 1.23457 2.46914 7.40741 7.40741 7.40741 7.40741 7.40741 4.93827 2.46914 7.40741 7.40741 7.40741 7.40741 7.40741 4.93827 1.23457 4.93827 4.93827 4.93827 4.93827 4.93827 3.7037 1.23457 2.46914 3.7037 1.23457 1.85185 3.7037 2.46914 3.7037 1.85185 1.23457 1.23457 1.85185 1.23457 3.7037 1.85185 1.85185 1.23457 2.46914 1.85185 2.46914 3.7037 1.23457 1.85185 3.7037 2.46914 3.7037 1.85185 1.23457 3.7037 1.85185 1.23457 2.46914 1.85185 2.46914 3.7037 1.23457 1.85185 3.7037 2.46914 3.7037 1.85185 1.23457 3.7037 1.85185 1.23457 2.46914 1.85185 2.46914 3.70371 1.23457 1.85185 3.7037 2.46914 3.7037 1.85185 1.23457 3.7037 1.85185 1.23457 2.46914 1.85185 2.46914 3.70371 1.23457 1.85185 3.70371 2.46914 3.7037 1.85185 1.23457 3.7037 1.85185 1.23457 2.46914 1.85185 2.46914 3.7037 1.23457 1.85185 1.85185 2.46914 1.85185 1.85185 1.23457 3.7037 0.617284 1.23457 1.23457 0.617284 1.23457 2.46914 3.7037 1.23457 1.85185 3.7037 2.46914 3.7037 1.85185 1.23457 3.7037 1.85185 2.46914 1.85185 2.46914 3.7037 1.23457 1.85185 3.7037 2.46914 3.7037 3.7037 2.46914 1.85185 2.46914 3.7037 1.23457 1.85185 3.7037 2.46914 3.7037 3.7037 2.46914 1.85185 2.46914 3.7037 1.23457 1.85185 3.7037 2.46914 3.7037 3.7037 2.46914 1.85185 2.46914 3.70371 1.23457 1.85185 3.70371 2.46914 3.7037 3.70371 2.46914 1.85185 2.46914 3.7037 1.23457 1.85185 1.85185 2.46914 1.85185 3.7037 1.23457 0.617284 1.23457 1.23457 3.7037 1.23457 0.617284 1.85185 2.46914 3.7037 0.617284 1.23457 1.85185 1.85185 2.46914 1.85185 1.23457 3.7037 1.23457 0.617284 1.85185 2.46914 3.7037 1.85185 2.46914 1.85185 1.23457 3.7037 1.23457 0.617284 1.85185 2.46914 3.7037 1.85185 2.46914 1.85185 1.23457 3.7037 1.23457 0.617284 1.85185 2.46914 3.7037 1.85185 2.46913 1.85185 1.23457 3.70371 1.23457 0.617284 1.85185 2.46914 3.7037 1.85185 2.46914 1.85185 1.23457 3.7037 1.23457 0.617284 1.23457 2.46913 1.85185 1.85185 1.23457 0.617284 2.46914 3.7037 3.7037 2.46914 3.7037 1.85185 1.23457 1.23457 1.85185 1.23457 3.7037 1.85185 1.85185 2.46914 2.46914 3.7037 3.7037 2.46914 3.7037 1.85185 1.23457 3.7037 1.85185 2.46914 2.46914 3.7037 3.7037 2.46914 3.70371 1.85185 1.23457 3.7037 1.85185 2.46914 2.46914 3.7037 3.7037 2.46914 3.7037 1.85185 1.23457 3.7037 1.85185 2.46913 2.46914 3.70371 3.70371 2.46914 3.70371 1.85185 1.23457 3.7037 1.85185 2.46914 2.46914 3.7037 1.85185 2.46914 1.85185 1.85185 1.23457 3.7037 0.617284 1.23457 2.46914 3.7037 3.7037 2.46914 3.7037 1.85185 1.23457 3.7037 1.85185 2.46914 2.46914 3.7037 3.7037 2.46914 3.7037 3.7037 2.46914 2.46914 3.7037 3.7037 2.46914 3.7037 3.7037 2.46914 2.46914 3.7037 3.7037 2.46914 3.7037 3.7037 2.46914 2.46914 3.70371 3.70371 2.46914 3.70371 3.70371 2.46914 2.46914 3.7037 1.85185 2.46914 1.85185 3.7037 1.23457 1.23457 3.7037 1.85185 2.46914 3.7037 0.617284 1.23457 1.85185 1.85185 2.46914 1.23457 3.7037 1.85185 2.46914 3.7037 1.85185 2.46914 1.23457 3.7037 1.85185 2.46914 3.7037 1.85185 2.46914 1.23457 3.7037 1.85185 2.46914 3.7037 1.85185 2.46913 1.23457 3.7037 1.85185 2.46914 3.7037 1.85185 2.46914 1.23457 3.7037 1.23457 2.46914 1.85185 1.85185 1.23457 2.46914 3.7037 3.7037 1.23457 1.85185 0.617284 1.23457 1.23457 1.85185 1.23457 1.85185 0.617284 1.85185 2.46914 2.46914 3.7037 3.7037 1.23457 1.85185 0.617284 1.23457 1.85185 1.85185 2.46914 2.46914 3.7037 3.7037 1.23457 1.85185 0.617284 1.23457 1.85185 1.85185 2.46914 2.46914 3.7037 3.7037 1.23457 1.85185 0.617284 1.23457 1.85185 1.85185 2.46913 2.46914 3.7037 3.7037 1.23457 1.85185 0.617284 1.23457 1.85185 1.85185 2.46914 2.46914 3.7037 1.85185 1.23457 1.23457 0.617284 1.23457 1.85185 0.617284 1.23457 2.46914 3.7037 3.7037 1.23457 1.85185 1.85185 1.23457 1.85185 0.617284 2.46914 2.46914 3.7037 3.7037 1.23457 1.85185 1.85185 2.46914 2.46914 3.7037 3.7037 1.23457 1.85185 1.85185 2.46914 2.46914 3.7037 3.7037 1.23457 1.85185 1.85185 2.46914 2.46914 3.7037 3.70371 1.23457 1.85185 1.85185 2.46914 2.46914 3.7037 1.85185 1.23457 1.23457 1.85185 1.23457 1.23457 3.7037 1.85185 1.23457 1.85185 0.617284 1.23457 1.23457 0.617284 2.46914 1.23457 3.7037 1.85185 1.23457 1.85185 1.23457 2.46914 1.23457 3.7037 1.85185 1.23457 1.85185 1.23457 2.46914 1.23457 3.7037 1.85185 1.23457 1.85185 1.23457 2.46913 1.23457 3.7037 1.85185 1.23457 1.85185 1.23457 2.46914 1.23457 3.7037 1.23457 1.23457 1.23457 1.23457 1.23457 
VECTORS u float
-0.999 0 0  -0.738441 0.158933 0.159117  -0.382664 0.160091 0.160924  -0.0019846 0.158872 0.160995  0.384485 0.161587 0.161268  0.768201 0.156063 0.156329  0.999 0 0  -0.999 0 0  -0.759175 0.05628 0.166662  -0.387273 0.0543144 0.16028  -0.0026558 0.0530892 0.158861  0.38385 0.0545659 0.158767  0.773298 0.0469475 0.179451  0.999 0 0  -0.999 0 0  -0.763806 -0.0452218 0.169024  -0.388426 -0.0526493 0.158797  -0.00238335 -0.0531436 0.158013  0.382648 -0.0523847 0.16026  0.773374 -0.053299 0.172024  0.999 0 0  -0.999 0 0  -0.754809 -0.152522 0.152555  -0.385252 -0.159229 0.160185  -0.00229031 -0.159699 0.157234  0.38257 -0.159211 0.15989  0.754218 -0.150749 0.155491  0.999 0 0  -0.999 0 0  -0.760914 0.167237 0.0559875  -0.387068 0.160454 0.0549765  -0.0027349 0.158003 0.0547603  0.384653 0.159037 0.0549513  0.776843 0.177223 0.0475077  0.999 0 0  -0.999 0 0  -0.785754 0.0561125 0.0547526  -0.388783 0.0534973 0.0533798  -0.00180513 0.0527847 0.0531787  0.384602 0.0531476 0.0529464  0.779116 0.0538892 0.0527315  0.999 0 0  -0.999 0 0  -0.78805 -0.0525451 0.056398  -0.388741 -0.053077 0.0523467  -0.00120521 -0.0531867 0.0522274  0.385332 -0.0526239 0.0528743  0.781963 -0.0560937 0.0530873  0.999 0 0  -0.999 0 0  -0.779792 -0.170758 0.0515151  -0.3857 -0.160084 0.0519351  -0.00102681 -0.159117 0.0517673  0.384578 -0.159285 0.0527313  0.761496 -0.168482 0.0475015  0.999 0 0  -0.999 0 0  -0.76275 0.169121 -0.0458599  -0.388049 0.159216 -0.0524192  -0.00212795 0.157919 -0.0517733  0.383316 0.159714 -0.0521734  0.779344 0.172208 -0.0530486  0.999 0 0  -0.999 0 0  -0.786936 0.0574192 -0.0544654  -0.3891 0.052651 -0.0531966  -0.000921071 0.0522617 -0.0524514  0.38611 0.0526725 -0.0520616  0.781771 0.053463 -0.0572883  0.999 0 0  -0.999 0 0  -0.78497 -0.0516967 -0.0537362  -0.388298 -0.0530534 -0.0532626  0.000416517 -0.0531855 -0.0528262  0.386336 -0.0541682 -0.0533386  0.781304 -0.0563682 -0.0560645  0.999 0 0  -0.999 0 0  -0.779436 -0.176261 -0.0493205  -0.387112 -0.157794 -0.0555681  0.000509501 -0.159 -0.0541108  0.384839 -0.160655 -0.0541641  0.759995 -0.167852 -0.0555523  0.999 0 0  -0.999 0 0  -0.754944 0.151234 -0.155141  -0.385303 0.160229 -0.158922  -0.00168765 0.158062 -0.15833  0.383174 0.158603 -0.159516  0.755695 0.153393 -0.152622  0.999 0 0  -0.999 0 0  -0.783494 0.05214 -0.170998  -0.385755 0.0518388 -0.159747  -0.000603616 0.0521838 -0.158247  0.384774 0.0515432 -0.158331  0.761892 0.0457504 -0.167573  0.999 0 0  -0.999 0 0  -0.782827 -0.0487279 -0.178541  -0.386394 -0.0543775 -0.1579  0.000509262 -0.0537891 -0.158475  0.384899 -0.0550212 -0.159972  0.759605 -0.0569726 -0.167989  0.999 0 0  -0.999 0 0  -0.765151 -0.158431 -0.158623  -0.385954 -0.160071 -0.160671  -0.000377536 -0.159724 -0.159902  0.380478 -0.161242 -0.160394  0.736966 -0.161144 -0.159512  0.999 0 0  -0.999 1.49012e-08 0  -0.949324 0.030979 0.0653304  -0.948875 0.0643438 0.0645166  -0.923878 0.0571954 0.118611  -0.914964 0.0336421 0.127574  -0.776431 0.0547629 0.111258  -0.948724 0.0658261 0.0309772  -0.776594 0.111837 0.0547242  -0.915931 0.127284 0.0347938  -0.999 0 1.49012e-08  -0.92495 0.118177 0.0582458  -0.999 0 1.49012e-08  -0.999 1.49012e-08 1.49012e-08  -0.942388 0.0330058 0.0335669  -0.999 1.49012e-08 0  -0.760362 0.159907 0.106604  -0.889169 0.10269 0.103859  -0.774101 0.106562 0.107015  -0.759627 0.106692 0.160772  -0.581058 0.0526645 0.107444  -0.579227 0.105317 0.105011  -0.573789 0.105309 0.156498  -0.577181 0.0534731 0.159595  -0.388947 0.0534765 0.106715  -0.580903 0.107449 0.0523614  -0.38886 0.106821 0.0538516  -0.5775 0.159674 0.05414  -0.573432 0.157009 0.106103  -0.584607 0.0536852 0.0534802  -0.387156 0.159621 0.10772  -0.566666 0.155221 0.156093  -0.38931 0.106832 0.107318  -0.387317 0.106961 0.160418  -0.195324 0.0530016 0.106216  -0.195464 0.105725 0.106367  -0.194471 0.10566 0.158873  -0.195598 0.0530559 0.158946  -0.00262147 0.0528356 0.106002  -0.195132 0.105872 0.0536444  -0.00261265 0.105498 0.0539857  -0.195587 0.158294 0.0542998  -0.19433 0.158076 0.107208  -0.194268 0.0530204 0.0533724  -0.00279987 0.157963 0.10793  -0.193438 0.15781 0.159756  -0.0028612 0.10566 0.106907  -0.0027501 0.105849 0.159571  0.189928 0.052922 0.106324  0.18934 0.105414 0.106126  0.191045 0.105575 0.158989  0.190469 0.0528652 0.159096  0.383011 0.0535199 0.106141  0.189981 0.105999 0.0536962  0.383092 0.106371 0.0541858  0.190566 0.158549 0.0540968  0.191386 0.158345 0.107193  0.190773 0.0528246 0.0530858  0.383182 0.157347 0.107528  0.192746 0.159235 0.160672  0.381373 0.106258 0.106722  0.382229 0.106974 0.157423  0.574178 0.0534551 0.108028  0.572741 0.105478 0.105415  0.564218 0.10268 0.158777  0.56797 0.0527141 0.163472  0.775125 0.0503946 0.11498  0.575362 0.108135 0.0531414  0.779212 0.115221 0.0516419  0.569506 0.162655 0.0526379  0.565544 0.157548 0.104178  0.578411 0.0536338 0.0526004  0.769269 0.165719 0.100363  0.558622 0.155379 0.156087  0.781565 0.105047 0.10603  0.77138 0.0995061 0.166398  0.945083 0.032204 0.0759404  0.943144 0.0683907 0.0691032  0.945393 0.0697654 0.1019  0.947401 0.0351676 0.118402  0.999 0 1.49012e-08  0.944901 0.0750442 0.0324476  0.999 1.49012e-08 0  0.948112 0.117195 0.0339172  0.9458 0.10163 0.0678544  0.944447 0.0377696 0.0378247  0.999 0 1.49012e-08  0.947162 0.107482 0.105129  0.999 1.49012e-08 1.49012e-08  0.999 1.49012e-08 0  -0.999 0 0  -0.950482 -0.0325291 0.0652038  -0.950325 0.000247955 0.0701118  -0.926651 -0.00147384 0.123447  -0.917966 -0.0256754 0.125558  -0.778308 -0.0502769 0.112913  -0.947313 -0.00440443 0.0351497  -0.788405 0.00177199 0.0580236  -0.999 0 1.49012e-08  -0.999 0 1.49012e-08  -0.944528 -0.0359153 0.0322099  -0.999 0 0  -0.782657 0.00198323 0.11452  -0.769659 0.00521922 0.170526  -0.579996 -0.0513337 0.108136  -0.583385 0.000785708 0.107488  -0.580434 0.0027889 0.16055  -0.578941 -0.0490666 0.160184  -0.388627 -0.0530694 0.105683  -0.58376 0.00110263 0.0533784  -0.388806 -6.68466e-05 0.0523167  -0.584218 -0.0523334 0.0538935  -0.390036 0.000543356 0.106436  -0.389556 0.000731528 0.159601  -0.194654 -0.0527171 0.105458  -0.19525 0.00029701 0.105531  -0.195122 0.000369132 0.158209  -0.195607 -0.0524428 0.157959  -0.00202686 -0.0530576 0.104953  -0.194252 -0.000150144 0.0528007  -0.00134242 -0.000211656 0.0528023  -0.193511 -0.0529261 0.0528417  -0.00238621 -0.000102669 0.105526  -0.00231224 -0.000569105 0.15798  0.190182 -0.0528679 0.105444  0.190935 0.000186145 0.10554  0.192161 -0.000301898 0.158451  0.188382 -0.0527635 0.158369  0.383593 -0.0523119 0.106222  0.191523 0.000131488 0.0529735  0.385103 0.00040096 0.053944  0.191166 -0.0530803 0.0525382  0.383251 0.000527799 0.106252  0.383083 -0.000815511 0.157464  0.575824 -0.0537128 0.106567  0.577932 0.000555336 0.107406  0.571891 0.000116229 0.159635  0.565926 -0.0521125 0.160542  0.777987 -0.0551796 0.111169  0.581197 0.000440121 0.054669  0.784643 0.000933588 0.0561331  0.579421 -0.0543196 0.0523036  0.78844 -0.000386894 0.116239  0.782183 -0.00108904 0.178851  0.943982 -0.0328023 0.0738994  0.945028 0.000258088 0.0748152  0.947276 -0.00321451 0.112098  0.946631 -0.0321856 0.11549  0.999 0 1.49012e-08  0.947292 0.0043177 0.0365107  0.999 0 0  0.943668 -0.0316769 0.036926  0.999 0 1.49012e-08  0.999 0 0  -0.999 0 0  -0.948586 -0.102196 0.0706416  -0.946425 -0.0665057 0.0657082  -0.917777 -0.0566822 0.121144  -0.915049 -0.0845154 0.129734  -0.769153 -0.162347 0.10227  -0.944302 -0.0744045 0.0320505  -0.78292 -0.109828 0.0546124  -0.999 0 1.49012e-08  -0.999 0 1.49012e-08  -0.948385 -0.112256 0.0307672  -0.999 0 0  -0.776175 -0.104364 0.109048  -0.761963 -0.0978529 0.161441  -0.575305 -0.154256 0.103313  -0.58004 -0.103853 0.106143  -0.577185 -0.101466 0.158391  -0.57363 -0.155182 0.152472  -0.38538 -0.157533 0.107509  -0.578666 -0.105681 0.0535415  -0.386395 -0.106223 0.0519095  -0.571657 -0.160334 0.0518612  -0.387216 -0.106182 0.104991  -0.387339 -0.105532 0.158666  -0.19413 -0.158303 0.105192  -0.194294 -0.105827 0.104789  -0.194578 -0.105284 0.157362  -0.193986 -0.157768 0.156477  -0.00126654 -0.158458 0.104614  -0.193128 -0.106164 0.0523449  -0.000642955 -0.106097 0.0521153  -0.191401 -0.158848 0.0521296  -0.00143129 -0.105744 0.10491  -0.00179762 -0.106549 0.157246  0.190418 -0.158407 0.104605  0.191286 -0.105558 0.104888  0.190937 -0.105607 0.157399  0.190249 -0.156997 0.156959  0.384267 -0.158363 0.105667  0.191511 -0.105968 0.0521075  0.385301 -0.105952 0.0529902  0.191964 -0.158577 0.0519017  0.384825 -0.105101 0.106176  0.383307 -0.107289 0.158103  0.573817 -0.158333 0.102864  0.577021 -0.106169 0.103808  0.572043 -0.10223 0.154342  0.571111 -0.151436 0.157287  0.760933 -0.160833 0.0996486  0.576696 -0.108274 0.0515618  0.773624 -0.112485 0.0509033  0.575835 -0.160546 0.0500692  0.774409 -0.108872 0.105312  0.766073 -0.102711 0.165436  0.916089 -0.122245 0.0568658  0.946285 -0.0659804 0.0666364  0.948959 -0.0705938 0.102674  0.916439 -0.132058 0.0859371  0.999 0 1.49012e-08  0.947601 -0.0660663 0.0345519  0.999 0 0  0.918177 -0.125377 0.0277129  0.999 0 1.49012e-08  0.999 0 0  -0.946745 0.0351878 -0.00449452  -0.950409 0.0712491 -0.000288665  -0.787298 0.0580711 4.08292e-05  -0.948973 0.0646839 -0.0344934  -0.777464 0.113146 -0.0516211  -0.916783 0.12431 -0.0264328  -0.999 0 0  -0.928073 0.122744 -0.001858  -0.999 0 0  -0.999 1.49012e-08 0  -0.943832 0.0324762 -0.036158  -0.999 1.49012e-08 0  -0.769794 0.169468 0.00460815  -0.783029 0.1143 0.00156564  -0.584278 0.0536718 0.000352025  -0.583925 0.107704 0.000487804  -0.388987 0.0525372 -6.44624e-05  -0.579901 0.108178 -0.0515311  -0.388556 0.106073 -0.0529157  -0.578335 0.160235 -0.0492318  -0.580605 0.160606 0.0027079  -0.583836 0.0543857 -0.0529295  -0.389893 0.159135 0.00107586  -0.390062 0.106444 0.000727832  -0.194489 0.0528253 0.000165522  -0.195107 0.105724 0.00103909  -0.00140452 0.0525396 0.000365019  -0.194536 0.105588 -0.0520296  -0.00169969 0.105037 -0.0522128  -0.195278 0.15801 -0.0516219  -0.195017 0.158348 0.00139117  -0.193948 0.0527786 -0.0527349  -0.00250387 0.157407 0.00118649  -0.00230795 0.105157 0.000704587  0.191542 0.0527203 0.000529766  0.190947 0.10559 0.000892639  0.385366 0.0536461 0.000632107  0.190843 0.105268 -0.0521355  0.384494 0.105939 -0.0518948  0.188824 0.157811 -0.051938  0.192306 0.158622 0.000770926  0.191445 0.052303 -0.0524955  0.384396 0.157686 -0.000158966  0.383991 0.106302 0.000992239  0.580855 0.0546316 -0.000311613  0.57905 0.107713 -2.19941e-05  0.781884 0.0546808 -0.00139815  0.577732 0.10618 -0.0536101  0.7817 0.111998 -0.0549819  0.569765 0.160687 -0.0531166  0.573757 0.159482 0.000533044  0.579784 0.0521069 -0.0547432  0.779103 0.177223 -0.00188121  0.789711 0.114534 -0.000663936  0.947435 0.0357774 0.0041405  0.946274 0.0728343 0.000595689  0.999 0 0  0.944708 0.0738372 -0.0329908  0.999 1.49012e-08 0  0.948668 0.114414 -0.031707  0.948415 0.111645 -0.00161663  0.943745 0.0370258 -0.0320667  0.999 0 0  0.999 1.49012e-08 0  -0.947957 -0.0364467 -0.0049721  -0.950491 0.000699222 1.85966e-05  -0.78491 -0.0542442 0.000839114  -0.947131 -0.00375664 -0.036696  -0.785324 0.00235635 -0.0560353  -0.999 0 0  -0.999 0 0  -0.945185 -0.0358822 -0.0358383  -0.999 0 0  -0.795332 0.00161707 0.000659287  -0.58235 -0.0538861 -0.000375569  -0.585915 -0.00067091 -0.00129277  -0.387203 -0.0537355 -0.000468999  -0.582571 0.00041461 -0.0547021  -0.387427 -0.000253022 -0.053926  -0.580492 -0.0521528 -0.0534245  -0.387834 -4.02927e-05 -0.000272423  -0.193828 -0.0531315 -0.000412077  -0.193831 7.60555e-05 0.00021863  -0.000516295 -0.0530902 -0.000339001  -0.193772 -0.000335574 -0.0528734  -0.000276446 -0.000563145 -0.0527331  -0.19341 -0.0529554 -0.0530571  -0.000627577 -0.000175029 8.33869e-05  0.191842 -0.0532172 -0.000159681  0.192336 -0.00031358 0.000146151  0.38613 -0.0529038 3.22461e-05  0.192245 -0.000567138 -0.0526429  0.386906 -0.000699461 -0.0523947  0.192236 -0.05348 -0.0530596  0.386653 -0.000126898 0.000185072  0.581149 -0.0538681 -0.000678897  0.582805 0.00043422 0.000503242  0.784514 -0.0581083 -0.00052616  0.58267 -0.00144833 -0.0533286  0.787297 -0.000944793 -0.0576623  0.58124 -0.0541776 -0.0536869  0.795506 -0.00090912 -0.000307113  0.94709 -0.0352337 0.00236124  0.947693 -0.0011186 -0.00130472  0.999 0 0  0.947166 0.00215667 -0.0344259  0.999 0 0  0.942205 -0.034617 -0.0337595  0.999 0 0  -0.947848 -0.111521 0.000433624  -0.946825 -0.0741975 -0.00129366  -0.778502 -0.176215 0.000782788  -0.945196 -0.075215 -0.032434  -0.779584 -0.112564 -0.051948  -0.999 0 0  -0.999 0 0  -0.948557 -0.112978 -0.0331112  -0.999 0 0  -0.787449 -0.114051 0.000530899  -0.573091 -0.157625 -0.000786453  -0.579889 -0.107365 -0.00134936  -0.385278 -0.156446 0.000216544  -0.575219 -0.106745 -0.0539158  -0.384541 -0.105305 -0.0540745  -0.568471 -0.161089 -0.0533289  -0.384516 -0.105992 -0.00117278  -0.194585 -0.159052 -0.000326008  -0.192463 -0.105925 -0.00055021  0.000482678 -0.158063 -0.000781894  -0.192812 -0.106251 -0.0533351  0.00076139 -0.106247 -0.053383  -0.193724 -0.158849 -0.0540463  0.000749469 -0.105836 -0.000552744  0.19149 -0.158894 -0.000921428  0.192856 -0.106202 -0.000747353  0.387128 -0.159418 -0.000475377  0.192978 -0.106284 -0.0533392  0.386614 -0.107274 -0.0535504  0.192961 -0.158806 -0.0537273  0.387687 -0.106753 -0.000560522  0.577599 -0.160934 -0.00200894  0.58072 -0.107872 -0.000815988  0.768699 -0.170139 -0.00412419  0.578339 -0.107894 -0.0525354  0.772443 -0.112872 -0.0562217  0.575566 -0.159996 -0.0536743  0.781975 -0.114516 -0.00228253  0.926832 -0.123657 0.000844359  0.948793 -0.0710075 -0.000526726  0.999 0 0  0.947446 -0.0691656 -0.0299758  0.999 0 0  0.917398 -0.129032 -0.0319211  0.999 0 0  -0.945902 0.0322229 -0.0745215  -0.948361 0.0653944 -0.0671952  -0.783668 0.0552699 -0.111784  -0.94927 0.0694841 -0.103859  -0.76963 0.102209 -0.164507  -0.916593 0.129436 -0.0885222  -0.999 0 0  -0.916757 0.121256 -0.0581855  -0.999 0 0  -0.999 1.49012e-08 0  -0.949542 0.031125 -0.111932  -0.999 1.49012e-08 0  -0.761791 0.161564 -0.0997337  -0.776409 0.110643 -0.105485  -0.578879 0.0541485 -0.106791  -0.579667 0.107058 -0.103595  -0.386308 0.0522173 -0.106134  -0.575699 0.104428 -0.154624  -0.385416 0.107436 -0.157483  -0.5736 0.15355 -0.156059  -0.576314 0.158788 -0.102162  -0.573971 0.0531421 -0.161093  -0.386835 0.158959 -0.105286  -0.387058 0.105448 -0.106079  -0.193126 0.052664 -0.105819  -0.194039 0.105339 -0.105027  -0.000258684 0.0522678 -0.105272  -0.193893 0.105393 -0.157446  -0.00063616 0.105311 -0.15786  -0.193532 0.156901 -0.157109  -0.193884 0.157969 -0.104686  -0.19122 0.0523943 -0.15829  -0.00133663 0.157385 -0.10514  -0.000647604 0.105104 -0.105166  0.192081 0.0518757 -0.105299  0.191906 0.104801 -0.104857  0.385976 0.0523084 -0.105238  0.191455 0.10414 -0.157504  0.385037 0.104579 -0.158521  0.191199 0.156672 -0.156496  0.19184 0.157316 -0.105035  0.192506 0.0513764 -0.157709  0.384079 0.157347 -0.107196  0.385981 0.105612 -