# vtk DataFile Version 5.1
vtk output
ASCII

DATASET UNSTRUCTURED_GRID
POINTS 931 float
0 0 0
0.166667 0 0
0.333333 0 0
0.5 0 0
0.666667 0 0
0.833333 0 0
1 0 0
1.16667 0 0
1.33333 0 0
1.5 0 0
1.66667 0 0
1.83333 0 0
2 0 0
2.16667 0 0
2.33333 0 0
2.5 0 0
2.66667 0 0
2.83333 0 0
3 0 0
0 0.166667 0
0.166667 0.166667 0
0.333333 0.166667 0
0.5 0.166667 0
0.666667 0.166667 0
0.833333 0.166667 0
1 0.166667 0
1.16667 0.166667 0
1.33333 0.166667 0
1.5 0.166667 0
1.66667 0.166667 0
1.83333 0.166667 0
2 0.166667 0
2.16667 0.166667 0
2.33333 0.166667 0
2.5 0.166667 0
2.66667 0.166667 0
2.83333 0.166667 0
3 0.166667 0
0 0.333333 0
0.166667 0.333333 0
0.333333 0.333333 0
0.5 0.333333 0
0.666667 0.333333 0
0.833333 0.333333 0
1 0.333333 0
1.16667 0.333333 0
1.33333 0.333333 0
1.5 0.333333 0
1.66667 0.333333 0
1.83333 0.333333 0
2 0.333333 0
2.16667 0.333333 0
2.33333 0.333333 0
2.5 0.333333 0
2.66667 0.333333 0
2.83333 0.333333 0
3 0.333333 0
0 0.5 0
0.166667 0.5 0
0.333333 0.5 0
0.5 0.5 0
0.666667 0.5 0
0.833333 0.5 0
1 0.5 0
1.16667 0.5 0
1.33333 0.5 0
1.5 0.5 0
1.66667 0.5 0
1.83333 0.5 0
2 0.5 0
2.16667 0.5 0
2.33333 0.5 0
2.5 0.5 0
2.66667 0.5 0
2.83333 0.5 0
3 0.5 0
0 0.666667 0
0.166667 0.666667 0
0.333333 0.666667 0
0.5 0.666667 0
0.666667 0.666667 0
0.833333 0.666667 0
1 0.666667 0
1.16667 0.666667 0
1.33333 0.666667 0
1.5 0.666667 0
1.66667 0.666667 0
1.83333 0.666667 0
2 0.666667 0
2.16667 0.666667 0
2.33333 0.666667 0
2.5 0.666667 0
2.66667 0.666667 0
2.83333 0.666667 0
3 0.666667 0
0 0.833333 0
0.166667 0.833333 0
0.333333 0.833333 0
0.5 0.833333 0
0.666667 0.833333 0
0.833333 0.833333 0
1 0.833333 0
1.16667 0.833333 0
1.33333 0.833333 0
1.5 0.833333 0
1.66667 0.833333 0
1.83333 0.833333 0
2 0.833333 0
2.16667 0.833333 0
2.33333 0.833333 0
2.5 0.833333 0
2.66667 0.833333 0
2.83333 0.833333 0
3 0.833333 0
0 1 0
0.166667 1 0
0.333333 1 0
0.5 1 0
0.666667 1 0
0.833333 1 0
1 1 0
1.16667 1 0
1.33333 1 0
1.5 1 0
1.66667 1 0
1.83333 1 0
2 1 0
2.16667 1 0
2.33333 1 0
2.5 1 0
2.66667 1 0
2.83333 1 0
3 1 0
0 0 0.166667
0.166667 0 0.166667
0.333333 0 0.166667
0.5 0 0.166667
0.666667 0 0.166667
0.833333 0 0.166667
1 0 0.166667
1.16667 0 0.166667
1.33333 0 0.166667
1.5 0 0.166667
1.66667 0 0.166667
1.83333 0 0.166667
2 0 0.166667
2.16667 0 0.166667
2.33333 0 0.166667
2.5 0 0.166667
2.66667 0 0.166667
2.83333 0 0.166667
3 0 0.166667
0 0.166667 0.166667
0.166667 0.166667 0.166667
0.333333 0.166667 0.166667
0.5 0.166667 0.166667
0.666667 0.166667 0.166667
0.833333 0.166667 0.166667
1 0.166667 0.166667
1.16667 0.166667 0.166667
1.33333 0.166667 0.166667
1.5 0.166667 0.166667
1.66667 0.166667 0.166667
1.83333 0.166667 0.166667
2 0.166667 0.166667
2.16667 0.166667 0.166667
2.33333 0.166667 0.166667
2.5 0.166667 0.166667
2.66667 0.166667 0.166667
2.83333 0.166667 0.166667
3 0.166667 0.166667
0 0.333333 0.166667
0.166667 0.333333 0.166667
0.333333 0.333333 0.166667
0.5 0.333333 0.166667
0.666667 0.333333 0.166667
0.833333 0.333333 0.166667
1 0.333333 0.166667
1.16667 0.333333 0.166667
1.33333 0.333333 0.166667
1.5 0.333333 0.166667
1.66667 0.333333 0.166667
1.83333 0.333333 0.166667
2 0.333333 0.166667
2.16667 0.333333 0.166667
2.33333 0.333333 0.166667
2.5 0.333333 0.166667
2.66667 0.333333 0.166667
2.83333 0.333333 0.166667
3 0.333333 0.166667
0 0.5 0.166667
0.166667 0.5 0.166667
0.333333 0.5 0.166667
0.5 0.5 0.166667
0.666667 0.5 0.166667
0.833333 0.5 0.166667
1 0.5 0.166667
1.16667 0.5 0.166667
1.33333 0.5 0.166667
1.5 0.5 0.166667
1.66667 0.5 0.166667
1.83333 0.5 0.166667
2 0.5 0.166667
2.16667 0.5 0.166667
2.33333 0.5 0.166667
2.5 0.5 0.166667
2.66667 0.5 0.166667
2.83333 0.5 0.166667
3 0.5 0.166667
0 0.666667 0.166667
0.166667 0.666667 0.166667
0.333333 0.666667 0.166667
0.5 0.666667 0.166667
0.666667 0.666667 0.166667
0.833333 0.666667 0.166667
1 0.666667 0.166667
1.16667 0.666667 0.166667
1.33333 0.666667 0.166667
1.5 0.666667 0.166667
1.66667 0.666667 0.166667
1.83333 0.666667 0.166667
2 0.666667 0.166667
2.16667 0.666667 0.166667
2.33333 0.666667 0.166667
2.5 0.666667 0.166667
2.66667 0.666667 0.166667
2.83333 0.666667 0.166667
3 0.666667 0.166667
0 0.833333 0.166667
0.166667 0.833333 0.166667
0.333333 0.833333 0.166667
0.5 0.833333 0.166667
0.666667 0.833333 0.166667
0.833333 0.833333 0.166667
1 0.833333 0.166667
1.16667 0.833333 0.166667
1.33333 0.833333 0.166667
1.5 0.833333 0.166667
1.66667 0.833333 0.166667
1.83333 0.833333 0.166667
2 0.833333 0.166667
2.16667 0.833333 0.166667
2.33333 0.833333 0.166667
2.5 0.833333 0.166667
2.66667 0.833333 0.166667
2.83333 0.833333 0.166667
3 0.833333 0.166667
0 1 0.166667
0.166667 1 0.166667
0.333333 1 0.166667
0.5 1 0.166667
0.666667 1 0.166667
0.833333 1 0.166667
1 1 0.166667
1.16667 1 0.166667
1.33333 1 0.166667
1.5 1 0.166667
1.66667 1 0.166667
1.83333 1 0.166667
2 1 0.166667
2.16667 1 0.166667
2.33333 1 0.166667
2.5 1 0.166667
2.66667 1 0.166667
2.83333 1 0.166667
3 1 0.166667
0 0 0.333333
0.166667 0 0.333333
0.333333 0 0.333333
0.5 0 0.333333
0.666667 0 0.333333
0.833333 0 0.333333
1 0 0.333333
1.16667 0 0.333333
1.33333 0 0.333333
1.5 0 0.333333
1.66667 0 0.333333
1.83333 0 0.333333
2 0 0.333333
2.16667 0 0.333333
2.33333 0 0.333333
2.5 0 0.333333
2.66667 0 0.333333
2.83333 0 0.333333
3 0 0.333333
0 0.166667 0.333333
0.166667 0.166667 0.333333
0.333333 0.166667 0.333333
0.5 0.166667 0.333333
0.666667 0.166667 0.333333
0.833333 0.166667 0.333333
1 0.166667 0.333333
1.16667 0.166667 0.333333
1.33333 0.166667 0.333333
1.5 0.166667 0.333333
1.66667 0.166667 0.333333
1.83333 0.166667 0.333333
2 0.166667 0.333333
2.16667 0.166667 0.333333
2.33333 0.166667 0.333333
2.5 0.166667 0.333333
2.66667 0.166667 0.333333
2.83333 0.166667 0.333333
3 0.166667 0.333333
0 0.333333 0.333333
0.166667 0.333333 0.333333
0.333333 0.333333 0.333333
0.5 0.333333 0.333333
0.666667 0.333333 0.333333
0.833333 0.333333 0.333333
1 0.333333 0.333333
1.16667 0.333333 0.333333
1.33333 0.333333 0.333333
1.5 0.333333 0.333333
1.66667 0.333333 0.333333
1.83333 0.333333 0.333333
2 0.333333 0.333333
2.16667 0.333333 0.333333
2.33333 0.333333 0.333333
2.5 0.333333 0.333333
2.66667 0.333333 0.333333
2.83333 0.333333 0.333333
3 0.333333 0.333333
0 0.5 0.333333
0.166667 0.5 0.333333
0.333333 0.5 0.333333
0.5 0.5 0.333333
0.666667 0.5 0.333333
0.833333 0.5 0.333333
1 0.5 0.333333
1.16667 0.5 0.333333
1.33333 0.5 0.333333
1.5 0.5 0.333333
1.66667 0.5 0.333333
1.83333 0.5 0.333333
2 0.5 0.333333
2.16667 0.5 0.333333
2.33333 0.5 0.333333
2.5 0.5 0.333333
2.66667 0.5 0.333333
2.83333 0.5 0.333333
3 0.5 0.333333
0 0.666667 0.333333
0.166667 0.666667 0.333333
0.333333 0.666667 0.333333
0.5 0.666667 0.333333
0.666667 0.666667 0.333333
0.833333 0.666667 0.333333
1 0.666667 0.333333
1.16667 0.666667 0.333333
1.33333 0.666667 0.333333
1.5 0.666667 0.333333
1.66667 0.666667 0.333333
1.83333 0.666667 0.333333
2 0.666667 0.333333
2.16667 0.666667 0.333333
2.33333 0.666667 0.333333
2.5 0.666667 0.333333
2.66667 0.666667 0.333333
2.83333 0.666667 0.333333
3 0.666667 0.333333
0 0.833333 0.333333
0.166667 0.833333 0.333333
0.333333 0.833333 0.333333
0.5 0.833333 0.333333
0.666667 0.833333 0.333333
0.833333 0.833333 0.333333
1 0.833333 0.333333
1.16667 0.833333 0.333333
1.33333 0.833333 0.333333
1.5 0.833333 0.333333
1.66667 0.833333 0.333333
1.83333 0.833333 0.333333
2 0.833333 0.333333
2.16667 0.833333 0.333333
2.33333 0.833333 0.333333
2.5 0.833333 0.333333
2.66667 0.833333 0.333333
2.83333 0.833333 0.333333
3 0.833333 0.333333
0 1 0.333333
0.166667 1 0.333333
0.333333 1 0.333333
0.5 1 0.333333
0.666667 1 0.333333
0.833333 1 0.333333
1 1 0.333333
1.16667 1 0.333333
1.33333 1 0.333333
1.5 1 0.333333
1.66667 1 0.333333
1.83333 1 0.333333
2 1 0.333333
2.16667 1 0.333333
2.33333 1 0.333333
2.5 1 0.333333
2.66667 1 0.333333
2.83333 1 0.333333
3 1 0.333333
0 0 0.5
0.166667 0 0.5
0.333333 0 0.5
0.5 0 0.5
0.666667 0 0.5
0.833333 0 0.5
1 0 0.5
1.16667 0 0.5
1.33333 0 0.5
1.5 0 0.5
1.66667 0 0.5
1.83333 0 0.5
2 0 0.5
2.16667 0 0.5
2.33333 0 0.5
2.5 0 0.5
2.66667 0 0.5
2.83333 0 0.5
3 0 0.5
0 0.166667 0.5
0.166667 0.166667 0.5
0.333333 0.166667 0.5
0.5 0.166667 0.5
0.666667 0.166667 0.5
0.833333 0.166667 0.5
1 0.166667 0.5
1.16667 0.166667 0.5
1.33333 0.166667 0.5
1.5 0.166667 0.5
1.66667 0.166667 0.5
1.83333 0.166667 0.5
2 0.166667 0.5
2.16667 0.166667 0.5
2.33333 0.166667 0.5
2.5 0.166667 0.5
2.66667 0.166667 0.5
2.83333 0.166667 0.5
3 0.166667 0.5
0 0.333333 0.5
0.166667 0.333333 0.5
0.333333 0.333333 0.5
0.5 0.333333 0.5
0.666667 0.333333 0.5
0.833333 0.333333 0.5
1 0.333333 0.5
1.16667 0.333333 0.5
1.33333 0.333333 0.5
1.5 0.333333 0.5
1.66667 0.333333 0.5
1.83333 0.333333 0.5
2 0.333333 0.5
2.16667 0.333333 0.5
2.33333 0.333333 0.5
2.5 0.333333 0.5
2.66667 0.333333 0.5
2.83333 0.333333 0.5
3 0.333333 0.5
0 0.5 0.5
0.166667 0.5 0.5
0.333333 0.5 0.5
0.5 0.5 0.5
0.666667 0.5 0.5
0.833333 0.5 0.5
1 0.5 0.5
1.16667 0.5 0.5
1.33333 0.5 0.5
1.5 0.5 0.5
1.66667 0.5 0.5
1.83333 0.5 0.5
2 0.5 0.5
2.16667 0.5 0.5
2.33333 0.5 0.5
2.5 0.5 0.5
2.66667 0.5 0.5
2.83333 0.5 0.5
3 0.5 0.5
0 0.666667 0.5
0.166667 0.666667 0.5
0.333333 0.666667 0.5
0.5 0.666667 0.5
0.666667 0.666667 0.5
0.833333 0.666667 0.5
1 0.666667 0.5
1.16667 0.666667 0.5
1.33333 0.666667 0.5
1.5 0.666667 0.5
1.66667 0.666667 0.5
1.83333 0.666667 0.5
2 0.666667 0.5
2.16667 0.666667 0.5
2.33333 0.666667 0.5
2.5 0.666667 0.5
2.66667 0.666667 0.5
2.83333 0.666667 0.5
3 0.666667 0.5
0 0.833333 0.5
0.166667 0.833333 0.5
0.333333 0.833333 0.5
0.5 0.833333 0.5
0.666667 0.833333 0.5
0.833333 0.833333 0.5
1 0.833333 0.5
1.16667 0.833333 0.5
1.33333 0.833333 0.5
1.5 0.833333 0.5
1.66667 0.833333 0.5
1.83333 0.833333 0.5
2 0.833333 0.5
2.16667 0.833333 0.5
2.33333 0.833333 0.5
2.5 0.833333 0.5
2.66667 0.833333 0.5
2.83333 0.833333 0.5
3 0.833333 0.5
0 1 0.5
0.166667 1 0.5
0.333333 1 0.5
0.5 1 0.5
0.666667 1 0.5
0.833333 1 0.5
1 1 0.5
1.16667 1 0.5
1.33333 1 0.5
1.5 1 0.5
1.66667 1 0.5
1.83333 1 0.5
2 1 0.5
2.16667 1 0.5
2.33333 1 0.5
2.5 1 0.5
2.66667 1 0.5
2.83333 1 0.5
3 1 0.5
0 0 0.666667
[...]
POINT_DATA 931
SCALARS weights float 1
LOOKUP_TABLE default
1.15741 1.54321 1.54321 1.54321 1.54321 1.54321 1.54321 1.54321 1.54321 1.54321 1.54321 1.54321 1.54321 1.54321 1.54321 1.54321 1.54321 1.54321 0.385802 1.54321 2.31482 2.31481 2.31482 2.31482 2.31481 2.31482 2.31482 2.31481 2.31482 2.31482 2.31481 2.31482 2.31482 2.31481 2.31482 2.31482 2.31481 0.771604 1.54321 2.31481 2.31481 2.31482 2.31482 2.31481 2.31482 2.31481 2.31481 2.31482 2.31481 2.31481 2.31482 2.31482 2.31481 2.31482 2.31482 2.31481 0.771604 1.54321 2.31482 2.31482 2.31482 2.31482 2.31481 2.31482 2.31482 2.31481 2.31482 2.31482 2.31481 2.31482 2.31482 2.31481 2.31482 2.31482 2.31481 0.771604 1.54321 2.31482 2.31482 2.31482 2.31482 2.31482 2.31482 2.31482 2.31481 2.31482 2.31482 2.31481 2.31482 2.31482 2.31481 2.31482 2.31482 2.31481 0.771604 1.54321 2.31481 2.31481 2.31481 2.31482 2.31481 2.31482 2.31481 2.31481 2.31482 2.31481 2.31481 2.31482 2.31482 2.31481 2.31481 2.31482 2.31481 0.771604 0.385802 0.771605 0.771605 0.771605 0.771605 0.771605 0.771605 0.771605 0.771605 0.771605 0.771605 0.771605 0.771605 0.771605 0.771605 0.771605 0.771605 0.771605 0.385802 1.54321 2.31482 2.31481 2.31482 2.31482 2.31481 2.31482 2.31482 2.31481 2.31482 2.31482 2.31481 2.31482 2.31482 2.31481 2.31482 2.31482 2.31481 0.771604 2.31482 4.62963 4.62963 4.62963 4.62963 4.62963 4.62963 4.62963 4.62963 4.62963 4.62963 4.62963 4.62963 4.62963 4.62963 4.62963 4.62963 4.62963 2.31481 2.31481 4.62963 4.62963 4.62963 4.62963 4.62963 4.62963 4.62963 4.62963 4.62963 4.62963 4.62963 4.62963 4.62963 4.62963 4.62963 4.62963 4.62963 2.31481 2.31482 4.62963 4.62963 4.62963 4.62963 4.62963 4.62963 4.62963 4.62963 4.62963 4.62963 4.62963 4.62963 4.62963 4.62963 4.62963 4.62963 4.62963 2.31481 2.31482 4.62963 4.62963 4.62963 4.62963 4.62963 4.62963 4.62963 4.62963 4.62963 4.62963 4.62963 4.62963 4.62963 4.62963 4.62963 4.62963 4.62963 2.31481 2.31481 4.62963 4.62963 4.62963 4.62963 4.62963 4.62963 4.62963 4.62963 4.62963 4.62963 4.62963 4.62963 4.62963 4.62963 4.62963 4.62963 4.62963 2.31481 0.771605 2.31481 2.31481 2.31481 2.31481 2.31481 2.31481 2.31481 2.31481 2.31481 2.31481 2.31481 2.31481 2.31482 2.31481 2.31481 2.31482 2.31481 1.54321 1.54321 2.31481 2.31481 2.31482 2.31482 2.31481 2.31482 2.31481 2.31481 2.31482 2.31481 2.31481 2.31482 2.31482 2.31481 2.31482 2.31482 2.31481 0.771604 2.31481 4.62963 4.62963 4.62963 4.62963 4.62963 4.62963 4.62963 4.62963 4.62963 4.62963 4.62963 4.62963 4.62963 4.62963 4.62963 4.62963 4.62963 2.31481 2.31481 4.62963 4.62963 4.62963 4.62963 4.62963 4.62963 4.62963 4.62963 4.62963 4.62963 4.62963 4.62963 4.62963 4.62963 4.62963 4.62963 4.62963 2.31481 2.31482 4.62963 4.62963 4.62963 4.62963 4.62963 4.62963 4.62963 4.62963 4.62963 4.62963 4.62963 4.62963 4.62963 4.62963 4.62963 4.62963 4.62963 2.31481 2.31482 4.62963 4.62963 4.62963 4.62963 4.62963 4.62963 4.62963 4.62963 4.62963 4.62963 4.62963 4.62963 4.62963 4.62963 4.62963 4.62963 4.62963 2.31481 2.31481 4.62963 4.62963 4.62963 4.62963 4.62963 4.62963 4.62963 4.62963 4.62963 4.62963 4.62963 4.62963 4.62963 4.62963 4.62963 4.62963 4.62963 2.31481 0.771605 2.31481 2.31481 2.31481 2.31481 2.31481 2.31481 2.31481 2.31481 2.31481 2.31481 2.31481 2.31481 2.31482 2.31481 2.31481 2.31482 2.31481 1.54321 1.54321 2.31482 2.31482 2.31482 2.31482 2.31481 2.31482 2.31482 2.31481 2.31482 2.31482 2.31481 2.31482 2.31482 2.31481 2.31482 2.31482 2.31481 0.771604 2.31482 4.62963 4.62963 4.62963 4.62963 4.62963 4.62963 4.62963 4.62963 4.62963 4.62963 4.62963 4.62963 4.62963 4.62963 4.62963 4.62963 4.62963 2.31481 2.31482 4.62963 4.62963 4.62963 4.62963 4.62963 4.62963 4.62963 4.62963 4.62963 4.62963 4.62963 4.62963 4.62963 4.62963 4.62963 4.62963 4.62963 2.31481 2.31482 4.62963 4.62963 4.62963 4.62963 4.62963 4.62963 4.62963 4.62963 4.62963 4.62963 4.62963 4.62963 4.62963 4.62963 4.62963 4.62963 4.62963 2.31481 2.31482 4.62963 4.62963 4.62963 4.62963 4.62963 4.62963 4.62963 4.62963 4.62963 4.62963 4.62963 4.62963 4.62963 4.62963 4.62963 4.62963 4.62963 2.31481 2.31481 4.62963 4.62963 4.62963 4.62963 4.62963 4.62963 4.62963 4.62963 4.62963 4.62963 4.62963 4.62963 4.62963 4.62963 4.62963 4.62963 4.62963 2.31481 0.771605 2.31481 2.31481 2.31481 2.31481 2.31481 2.31481 2.31481 2.31481 2.31481 2.31481 2.31481 2.31481 2.31482 2.31481 2.31481 2.31482 2.31481 1.54321 1.54321 2.31482 2.31482 2.31482 2.31482 2.31482 2.31482 2.31482 2.31481 2.31482 2.31482 2.31481 2.31482 2.31482 2.31481 2.31482 2.31482 2.31481 0.771604 2.31482 4.62963 4.62963 4.62963 4.62963 4.62963 4.62963 4.62963 4.62963 4.62963 4.62963 4.62963 4.62963 4.62963 4.62963 4.62963 4.62963 4.62963 2.31481 2.31482 4.62963 4.62963 4.62963 4.62963 4.62963 4.62963 4.62963 4.62963 4.62963 4.62963 4.62963 4.62963 4.62963 4.62963 4.62963 4.62963 4.62963 2.31481 2.31482 4.62963 4.62963 4.62963 4.62963 4.62963 4.62963 4.62963 4.62963 4.62963 4.62963 4.62963 4.62963 4.62963 4.62963 4.62963 4.62963 4.62963 2.31481 2.31482 4.62963 4.62963 4.62963 4.62963 4.62963 4.62963 4.62963 4.62963 4.62963 4.62963 4.62963 4.62963 4.62963 4.62963 4.62963 4.62963 4.62963 2.31481 2.31481 4.62963 4.62963 4.62963 4.62963 4.62963 4.62963 4.62963 4.62963 4.62963 4.62963 4.62963 4.62963 4.62963 4.62963 4.62963 4.62963 4.62963 2.31481 0.771605 2.31481 2.31481 2.31481 2.31481 2.31481 2.31481 2.31481 2.31481 2.31481 2.31481 2.31481 2.31481 2.31482 2.31481 2.31481 2.31482 2.31481 1.54321 1.54321 2.31481 2.31481 2.31481 2.31482 2.31481 2.31482 2.31481 2.31481 2.31482 2.31481 2.31481 2.31482 2.31482 2.31481 2.31481 2.31482 2.31481 0.771604 2.31481 4.62963 4.62963 4.62963 4.62963 4.62963 4.62963 4.62963 4.62963 4.62963 4.62963 4.62963 4.62963 4.62963 4.62963 4.62963 4.62963 4.62963 2.31481 2.31481 4.62963 4.62963 4.62963 4.62963 4.62963 4.62963 4.62963 4.62963 4.62963 4.62963 4.62963 4.62963 4.62963 4.62963 4.62963 4.62963 4.62963 2.31481 2.31481 4.62963 4.62963 4.62963 4.62963 4.62963 4.62963 4.62963 4.62963 4.62963 4.62963 4.62963 4.62963 4.62963 4.62963 4.62963 4.62963 4.62963 2.31481 2.31482 4.62963 4.62963 4.62963 4.62963 4.62963 4.62963 4.62963 4.62963 4.62963 4.62963 4.62963 4.62963 4.62963 4.62963 4.62963 4.62963 4.62963 2.31481 2.31481 4.62963 4.62963 4.62963 4.62963 4.62963 4.62963 4.62963 4.62963 4.62963 4.62963 4.62963 4.62963 4.62963 4.62963 4.62963 4.62963 4.62963 2.31481 0.771605 2.31481 2.31481 2.31481 2.31481 2.31481 2.31481 2.31481 2.31481 2.31481 2.31481 2.31481 2.31481 2.31482 2.31481 2.31481 2.31482 2.31481 1.54321 0.385802 0.771605 0.771605 0.771605 0.771605 0.771605 0.771605 0.771605 0.771605 0.771605 0.771605 0.771605 0.771605 0.771605 0.771605 0.771605 0.771605 0.771605 0.385802 0.771605 2.31481 2.31481 2.31481 2.31481 2.31481 2.31481 2.31481 2.31481 2.31481 2.31481 2.31481 2.31481 2.31482 2.31481 2.31481 2.31482 2.31481 1.54321 0.771605 2.31481 2.31481 2.31481 2.31481 2.31481 2.31481 2.31481 2.31481 2.31481 2.31481 2.31481 2.31481 2.31482 2.31481 2.31481 2.31482 2.31481 1.54321 0.771605 2.31481 2.31481 2.31481 2.31481 2.31481 2.31481 2.31481 2.31481 2.31481 2.31481 2.31481 2.31481 2.31482 2.31481 2.31481 2.31482 2.31481 1.54321 0.771605 2.31481 2.31481 2.31481 2.31481 2.31481 2.31481 2.31481 2.31481 2.31481 2.31481 2.31481 2.31481 2.31482 2.31481 2.31481 2.31482 2.31481 1.54321 0.771605 2.31481 2.31481 2.31481 2.31481 2.31481 2.31481 2.31481 2.31481 2.31481 2.31481 2.31481 2.31481 2.31482 2.31481 2.31481 2.31482 2.31481 1.54321 0.385802 1.54321 1.54321 1.54321 1.54321 1.54321 1.54321 1.54321 1.54321 1.54321 1.54321 1.54321 1.54321 1.54321 1.54321 1.54321 1.54321 1.54321 1.15741 
VECTORS u float
-0.999 0 0  -0.881223 0.0826667 0.0811494  -0.765162 0.128009 0.126221  -0.642711 0.150794 0.149328  -0.514029 0.160519 0.158984  -0.379685 0.161788 0.160208  -0.239912 0.159774 0.15806  -0.0960625 0.156673 0.155083  0.0512168 0.153763 0.152602  0.203615 0.151667 0.150496  0.363678 0.151621 0.150459  0.537697 0.15417 0.153225  0.774534 0.157127 0.156696  0.880721 0.116 0.115531  0.938763 0.0715836 0.070832  0.970427 0.0365073 0.0362206  0.987266 0.0157255 0.0156366  0.99572 0.00334314 0.00349832  0.999 0 0  -0.999 1.49012e-08 0  -0.928021 0.0420081 0.0958789  -0.805769 0.0874142 0.131757  -0.678661 0.110381 0.14928  -0.547203 0.119668 0.155981  -0.41156 0.120082 0.156896  -0.272125 0.116807 0.155042  -0.128926 0.112634 0.151346  0.0172119 0.108745 0.147179  0.166651 0.105261 0.142337  0.321698 0.103383 0.137623  0.486019 0.102935 0.132225  0.676489 0.0913638 0.126364  0.858402 0.0900673 0.129914  0.928937 0.0554311 0.0914803  0.966833 0.0264962 0.0544425  0.986496 0.00986569 0.0276749  0.995942 0.000591695 0.0102607  0.999 1.49012e-08 0  -0.999 0 0  -0.930849 0.0218278 0.0772148  -0.83498 0.0516306 0.138387  -0.708655 0.0716245 0.151834  -0.576943 0.0794311 0.157029  -0.441131 0.078692 0.157577  -0.302179 0.0741939 0.154707  -0.15968 0.0689224 0.149204  -0.0147943 0.0639232 0.142819  0.132847 0.0593524 0.135745  0.283547 0.0556383 0.128555  0.439849 0.0523192 0.120388  0.609527 0.0343521 0.113134  0.77419 0.0264454 0.111555  0.919874 0.0380845 0.109582  0.963446 0.0150903 0.0710978  0.985527 0.00295535 0.0390869  0.995782 -0.00271103 0.0162404  0.999 0 0  -0.999 0 0  -0.93489 0.00476557 0.0659425  -0.84682 0.0242878 0.123834  -0.73695 0.0353267 0.159603  -0.606595 0.0403368 0.162213  -0.471206 0.0378544 0.16157  -0.332274 0.0320848 0.156864  -0.189962 0.0256676 0.148417  -0.0456429 0.0196497 0.139716  0.100244 0.0138173 0.131026  0.248569 0.00886458 0.122522  0.399273 0.00332904 0.113445  0.557044 -0.0183875 0.105399  0.710476 -0.0305903 0.10039  0.849256 -0.0222575 0.0953041  0.961495 0.00443494 0.0842864  0.985176 -0.0041213 0.0469729  0.995759 -0.00627196 0.020604  0.999 0 0  -0.999 0 0  -0.941803 -0.0109829 0.0585296  -0.860493 -0.000805438 0.114259  -0.757316 0.00391722 0.153949  -0.637091 0.00288284 0.172111  -0.502893 -0.00217402 0.168664  -0.363753 -0.00945675 0.161221  -0.221201 -0.0172142 0.148073  -0.0765775 -0.02403 0.137487  0.068894 -0.03064 0.128061  0.21508 -0.0368774 0.118659  0.360868 -0.0445042 0.108558  0.512168 -0.0682231 0.100144  0.658603 -0.0830989 0.0925437  0.792654 -0.0771506 0.0840115  0.904518 -0.0502401 0.071677  0.985404 -0.00990742 0.0520972  0.995878 -0.00959271 0.0218901  0.999 0 0  -0.999 0 0  -0.952238 -0.0258663 0.0531192  -0.879951 -0.0259579 0.107039  -0.782078 -0.0267398 0.151587  -0.665104 -0.0316567 0.174772  -0.535837 -0.0407271 0.176698  -0.398288 -0.0506508 0.165535  -0.255326 -0.0600667 0.145446  -0.10993 -0.067619 0.133711  0.0363539 -0.0745033 0.124961  0.182021 -0.0812856 0.116111  0.324577 -0.0903558 0.105443  0.470529 -0.115832 0.095448  0.611468 -0.132813 0.085683  0.742986 -0.127906 0.0757381  0.856022 -0.0996495 0.0637108  0.939205 -0.0566996 0.0452471  0.99594 -0.0122009 0.019799  0.999 0 0  -0.999 0 0  -0.95879 -0.034392 0.0536752  -0.904118 -0.0512018 0.0984882  -0.813082 -0.0584518 0.148329  -0.698125 -0.0666564 0.178337  -0.568397 -0.0778899 0.181574  -0.431599 -0.0909137 0.16234  -0.290437 -0.103257 0.135377  -0.144715 -0.11148 0.127465  0.00245535 -0.118574 0.120963  0.149292 -0.125159 0.113557  0.294455 -0.133187 0.105195  0.434996 -0.160472 0.0926893  0.571398 -0.179258 0.0793451  0.700308 -0.175211 0.0684555  0.814121 -0.14543 0.0604603  0.903594 -0.0963023 0.0530964  0.957257 -0.0537363 0.0353254  0.999 0 0  -0.999 0 1.49012e-08  -0.928116 0.0962033 0.0405109  -0.805691 0.132507 0.0856576  -0.67865 0.150252 0.108919  -0.547145 0.157056 0.118147  -0.411395 0.157995 0.118578  -0.272104 0.156296 0.115123  -0.12909 0.152437 0.111  0.0171343 0.147854 0.10759  0.166672 0.143342 0.104145  0.321685 0.13866 0.102239  0.485943 0.133137 0.101935  0.676254 0.12674 0.0907692  0.858179 0.130177 0.0894139  0.928866 0.0921738 0.0545893  0.96674 0.0549752 0.0261223  0.986536 0.0278667 0.00974286  0.995976 0.0100976 0.000681818  0.999 0 1.49012e-08  -0.999 1.49012e-08 1.49012e-08  -0.983049 0.0308047 0.0304074  -0.837501 0.083461 0.0826697  -0.703778 0.104619 0.103629  -0.570219 0.112461 0.111375  -0.434601 0.113702 0.112653  -0.296739 0.111927 0.110692  -0.155154 0.108088 0.106957  -0.0108815 0.103446 0.10278  0.135889 0.0987671 0.0978342  0.286819 0.0936351 0.0926436  0.445802 0.087589 0.0866744  0.621647 0.0783784 0.0779261  0.821218 0.095195 0.0947631  0.911407 0.0717823 0.0710149  0.959801 0.0434546 0.0428635  0.984547 0.021733 0.0215441  0.995856 0.00750016 0.00764462  0.999 1.49012e-08 1.49012e-08  -0.999 0 1.49012e-08  -0.986953 0.0166133 0.0159034  -0.885645 0.0405653 0.0822206  -0.746013 0.0628489 0.102799  -0.60821 0.0709873 0.110751  -0.470168 0.0718396 0.112446  -0.330811 0.0694767 0.110141  -0.18894 0.0647309 0.104809  -0.0447444 0.0593157 0.0987639  0.10135 0.0539289 0.0919697  0.249727 0.0476485 0.0849875  0.403616 0.0397788 0.0773171  0.567241 0.0268369 0.0703631  0.736294 0.0301257 0.0750297  0.893021 0.0471742 0.0821174  0.952384 0.0288498 0.0565628  0.982172 0.0136204 0.0320023  0.995453 0.00394851 0.013542  0.999 0 1.49012e-08  -0.999 0 1.49012e-08  -0.989551 0.00461233 0.00861607  -0.899444 0.0153071 0.0684142  -0.782677 0.0246597 0.108399  -0.64453 0.0307335 0.114386  -0.505215 0.030514 0.115577  -0.36443 0.0273973 0.111974  -0.221777 0.0217702 0.103955  -0.077472 0.0155045 0.0957456  0.0677792 0.00917912 0.0876391  0.214684 0.00198781 0.0796423  0.364286 -0.00763306 0.0714661  0.519408 -0.0233544 0.0650805  0.673887 -0.0263819 0.0643055  0.819154 -0.0153079 0.0655609  0.945325 0.0128673 0.0648706  0.980047 0.00447851 0.0381279  0.995064 -0.000177205 0.0175558  0.999 0 1.49012e-08  -0.999 0 1.49012e-08  -0.991982 -0.00550014 0.00647312  -0.911081 -0.00637144 0.0612995  -0.804735 -0.00607449 0.102636  -0.679405 -0.0074507 0.123166  -0.54029 -0.00987655 0.121939  -0.398498 -0.0142374 0.115886  -0.254306 -0.0207429 0.103603  -0.109713 -0.0279462 0.0933582  0.0351524 -0.0351208 0.0844042  0.180491 -0.0433898 0.0756651  0.327741 -0.0540944 0.0674991  0.47737 -0.0717068 0.0610154  0.623054 -0.0786099 0.0564337  0.76072 -0.0716948 0.0525826  0.882554 -0.046113 0.0483096  0.978486 -0.00417405 0.0405369  0.994874 -0.0042544 0.0181454  0.999 0 1.49012e-08  -0.999 0 1.49012e-08  -0.994262 -0.0132349 0.0086779  -0.924543 -0.0260642 0.0591989  -0.827544 -0.0344105 0.102009  -0.70844 -0.0415468 0.125707  -0.575191 -0.0485773 0.129428  -0.433568 -0.0551003 0.120156  -0.287257 -0.0626893 0.101417  -0.142644 -0.0710984 0.0896019  0.00251555 -0.0788937 0.0809673  0.147565 -0.0877226 0.0727097  0.292707 -0.0994884 0.0643284  0.43777 -0.118854 0.056401  0.57857 -0.12782 0.0496238  0.71098 -0.123551 0.0427421  0.829419 -0.099878 0.0360998  0.925569 -0.0571682 0.0283172  0.994747 -0.00762075 0.0149153  0.999 0 1.49012e-08  -0.999 0 1.49012e-08  -0.995676 -0.0181407 0.0131701  -0.939743 -0.0438881 0.0583524  -0.854676 -0.0622262 0.102272  -0.740931 -0.0747604 0.130462  -0.608643 -0.0849001 0.1346  -0.466784 -0.0943056 0.117434  -0.320517 -0.104341 0.0922331  -0.177142 -0.114432 0.0834499  -0.0312889 -0.122784 0.0767715  0.115033 -0.131612 0.069776  0.260062 -0.143606 0.0621848  0.40209 -0.164145 0.0525491  0.539089 -0.174845 0.0423617  0.667169 -0.172489 0.0335046  0.783512 -0.149283 0.0290964  0.880685 -0.104731 0.0287603  0.951648 -0.0524904 0.0276788  0.999 0 1.49012e-08  -0.999 0 0  -0.930587 0.0772765 0.0203914  -0.834958 0.138869 0.0499524  -0.708621 0.152393 0.0702279  -0.576877 0.157591 0.0779795  -0.44105 0.158124 0.077216  -0.301934 0.155571 0.0726783  -0.160067 0.14982 0.0672495  -0.0150278 0.143076 0.0627399  0.13295 0.136418 0.0582926  0.283676 0.129223 0.0545737  0.439729 0.12084 0.0513419  0.609381 0.11361 0.0338539  0.774047 0.112248 0.0260153  0.919389 0.109975 0.0370286  0.963323 0.0713371 0.0147053  0.985524 0.0392765 0.00277424  0.995834 0.0162765 -0.00265336  0.999 0 0  -0.999 1.49012e-08 0  -0.987137 0.0156921 0.0160803  -0.885904 0.0825436 0.0396804  -0.746064 0.103311 0.0618436  -0.608217 0.111273 0.0698984  -0.47017 0.11295 0.0708066  -0.330712 0.110912 0.0683287  -0.188995 0.105545 0.0636347  -0.0449691 0.0989933 0.0586094  0.101255 0.0925048 0.053011  0.249827 0.0855956 0.0467477  0.403675 0.0777972 0.0389433  0.56705 0.070761 0.0263846  0.735916 0.075537 0.0295893  0.892804 0.0825992 0.0462554  0.952304 0.056728 0.0281648  0.982078 0.0321146 0.0133626  0.995458 0.0135868 0.00411704  0.999 1.49012e-08 0  -0.999 0 0  -0.989597 0.00489002 0.00488937  -0.950552 0.017374 0.0169406  -0.787219 0.053368 0.0528326  -0.642699 0.0650031 0.0644533  -0.502144 0.0679482 0.0674305  -0.361578 0.0664341 0.0657288  -0.219648 0.0612276 0.06052  -0.0757015 0.0549229 0.0546567  0.0696658 0.0485943 0.0480805  0.216303 0.0417116 0.0412122  0.366258 0.0335051 0.0331147  0.522115 0.0254083 0.0250368  0.682104 0.0279284 0.0273286  0.865343 0.0505774 0.049965  0.940139 0.0380873 0.0378434  0.977915 0.0224571 0.0222864  0.994649 0.00973934 0.00972849  0.999 0 0  -0.999 0 0  -0.991199 -0.00391203 0.000536412  -0.96044 -0.0046795 0.00729331  -0.836738 0.00879377 0.0519373  -0.686113 0.0218958 0.0648673  -0.541439 0.0253503 0.0689412  -0.398109 0.0237305 0.0666123  -0.254121 0.018235 0.0593159  -0.109685 0.0112936 0.0515004  0.03543 0.00439179 0.0439841  0.181252 -0.00298995 0.0365036  0.328352 -0.0121686 0.0286524  0.4786 -0.0218835 0.02245  0.630171 -0.0227854 0.0225272  0.788013 -0.0137726 0.031804  0.927901 0.0158353 0.0407063  0.973969 0.0105268 0.0258251  0.99392 0.00478172 0.0129915  0.999 0 0  -0.999 0 0  -0.99288 -0.0115718 0.000798255  -0.968995 -0.0236276 0.00343597  -0.859743 -0.02131 0.0465745  -0.72731 -0.0183561 0.0713093  -0.5811 -0.0162614 0.0737389  -0.435234 -0.0184761 0.0695937  -0.28842 -0.0243446 0.0584985  -0.142988 -0.031951 0.0489063  0.00225008 -0.0395107 0.040718  0.14727 -0.0476593 0.0328049  0.292961 -0.0575531 0.0253135  0.439143 -0.0687469 0.0195538  0.58456 -0.0724302 0.017096  0.730275 -0.0699556 0.0189154  0.861395 -0.0456192 0.0221167  0.970248 -0.00233549 0.0247738  0.993281 -0.000611246 0.0123005  0.999 0 0  -0.999 0 0  -0.994579 -0.0175078 0.00482088  -0.977409 -0.0396259 0.00568804  -0.880818 -0.0475929 0.0477376  -0.758195 -0.052417 0.0734425  -0.619607 -0.0559142 0.0799202  -0.472575 -0.0598423 0.0729978  -0.322503 -0.0664808 0.0556771  -0.175706 -0.0748146 0.0449838  -0.0302073 -0.0831364 0.0369815  0.114575 -0.0919366 0.0294443  0.258853 -0.102706 0.0219192  0.403165 -0.114699 0.0158073  0.544351 -0.12027 0.0113328  0.682032 -0.121778 0.00870782  0.806579 -0.101301 0.00773069  0.912156 -0.0599394 0.00862765  0.992783 -0.00562793 0.00737455  0.999 0 0  -0.999 0 0  -0.995621 -0.0211937 0.0101535  -0.984845 -0.051434 0.0118378  -0.902964 -0.0710465 0.052484  -0.790146 -0.0838605 0.0794816  -0.655255 -0.0920934 0.0847614  -0.508143 -0.0993438 0.0695739  -0.356245 -0.107777 0.046272  -0.2093 -0.117312 0.039155  -0.0637841 -0.126653 0.0327202  0.0817666 -0.135803 0.0261149  0.226055 -0.146851 0.0193286  0.36872 -0.159629 0.0119937  0.506377 -0.166963 0.00406808  0.639548 -0.170357 -0.000696123  0.758991 -0.152197 -0.00131196  0.861462 -0.112424 0.00382027  0.942227 -0.0573375 0.0138148  0.999 0 0  -0.999 0 0  -0.934375 0.0658877 0.00344884  -0.846532 0.124025 0.0226937  -0.736787 0.159907 0.0340243  -0.606545 0.162394 0.0388908  -0.470973 0.161622 0.0364546  -0.33224 0.157277 0.0304924  -0.19017 0.148817 0.0241077  -0.0460101 0.139931 0.0184632  0.100465 0.131312 0.0128433  0.24846 0.122743 0.00776011  0.399467 0.113798 0.00256199  0.557029 0.106054 -0.0186997  0.710479 0.101153 -0.0308233  0.849499 0.0956133 -0.0228851  0.961213 0.0843151 0.00393218  0.985091 0.0470906 -0.00440723  0.995778 0.020489 -0.00629234  0.999 0 0  -0.999 1.49012e-08 0  -0.989735 0.00812662 0.00400662  -0.899513 0.0684432 0.01443  -0.782794 0.10861 0.0236648  -0.644528 0.114606 0.0296972  -0.505152 0.115599 0.0295535  -0.364429 0.112401 0.0262668  -0.221648 0.104535 0.0208359  -0.0780616 0.095896 0.014744  0.0674231 0.0876793 0.00824547  0.214682 0.0799202 0.00115895  0.364242 0.0717138 -0.00836033  0.518906 0.0654591 -0.