# vtk DataFile Version 5.1
vtk output
ASCII
DATASET UNSTRUCTURED_GRID
POINTS 4721 float
0 0 0 0.125 0 0 0.25 0 0 
0.375 0 0 0.5 0 0 0.625 0 0 
0.75 0 0 0.875 0 0 1 0 0 
1.125 0 0 1.25 0 0 1.375 0 0 
1.5 0 0 1.625 0 0 1.75 0 0 
1.875 0 0 2 0 0 2.125 0 0 
2.25 0 0 2.375 0 0 2.5 0 0 
2.625 0 0 2.75 0 0 2.875 0 0 
3 0 0 3.125 0 0 3.25 0 0 
3.375 0 0 3.5 0 0 3.625 0 0 
3.75 0 0 3.875 0 0 4 0 0 
0 0.125 0 0.125 0.125 0 0.25 0.125 0 
0.375 0.125 0 0.5 0.125 0 0.625 0.125 0 
0.75 0.125 0 0.875 0.125 0 1 0.125 0 
1.125 0.125 0 1.25 0.125 0 1.375 0.125 0 
1.5 0.125 0 1.625 0.125 0 1.75 0.125 0 
1.875 0.125 0 2 0.125 0 2.125 0.125 0 
2.25 0.125 0 2.375 0.125 0 2.5 0.125 0 
2.625 0.125 0 2.75 0.125 0 2.875 0.125 0 
3 0.125 0 3.125 0.125 0 3.25 0.125 0 
3.375 0.125 0 3.5 0.125 0 3.625 0.125 0 
3.75 0.125 0 3.875 0.125 0 4 0.125 0 
0 0.25 0 0.125 0.25 0 0.25 0.25 0 
0.375 0.25 0 0.5 0.25 0 0.625 0.25 0 
0.75 0.25 0 0.875 0.25 0 1 0.25 0 
1.125 0.25 0 1.25 0.25 0 1.375 0.25 0 
1.5 0.25 0 1.625 0.25 0 1.75 0.25 0 
1.875 0.25 0 2 0.25 0 2.125 0.25 0 
2.25 0.25 0 2.375 0.25 0 2.5 0.25 0 
2.625 0.25 0 2.75 0.25 0 2.875 0.25 0 
3 0.25 0 3.125 0.25 0 3.25 0.25 0 
3.375 0.25 0 3.5 0.25 0 3.625 0.25 0 
3.75 0.25 0 3.875 0.25 0 4 0.25 0 
0 0.375 0 0.125 0.375 0 0.25 0.375 0 
0.375 0.375 0 0.5 0.375 0 0.625 0.375 0 
0.75 0.375 0 0.875 0.375 0 1 0.375 0 
1.125 0.375 0 1.25 0.375 0 1.375 0.375 0 
1.5 0.375 0 1.625 0.375 0 1.75 0.375 0 
1.875 0.375 0 2 0.375 0 2.125 0.375 0 
2.25 0.375 0 2.375 0.375 0 2.5 0.375 0 
2.625 0.375 0 2.75 0.375 0 2.875 0.375 0 
3 0.375 0 3.125 0.375 0 3.25 0.375 0 
3.375 0.375 0 3.5 0.375 0 3.625 0.375 0 
3.75 0.375 0 3.875 0.375 0 4 0.375 0 
0 0.5 0 0.125 0.5 0 0.25 0.5 0 
0.375 0.5 0 0.5 0.5 0 0.625 0.5 0 
0.75 0.5 0 0.875 0.5 0 1 0.5 0 
1.125 0.5 0 1.25 0.5 0 1.375 0.5 0 
1.5 0.5 0 1.625 0.5 0 1.75 0.5 0 
1.875 0.5 0 2 0.5 0 2.125 0.5 0 
2.25 0.5 0 2.375 0.5 0 2.5 0.5 0 
2.625 0.5 0 2.75 0.5 0 2.875 0.5 0 
3 0.5 0 3.125 0.5 0 3.25 0.5 0 
3.375 0.5 0 3.5 0.5 0 3.625 0.5 0 
3.75 0.5 0 3.875 0.5 0 4 0.5 0 
0 0.625 0 0.125 0.625 0 0.25 0.625 0 
0.375 0.625 0 0.5 0.625 0 0.625 0.625 0 
0.75 0.625 0 0.875 0.625 0 1 0.625 0 
1.125 0.625 0 1.25 0.625 0 1.375 0.625 0 
1.5 0.625 0 1.625 0.625 0 1.75 0.625 0 
1.875 0.625 0 2 0.625 0 2.125 0.625 0 
2.25 0.625 0 2.375 0.625 0 2.5 0.625 0 
2.625 0.625 0 2.75 0.625 0 2.875 0.625 0 
3 0.625 0 3.125 0.625 0 3.25 0.625 0 
3.375 0.625 0 3.5 0.625 0 3.625 0.625 0 
3.75 0.625 0 3.875 0.625 0 4 0.625 0 
0 0.75 0 0.125 0.75 0 0.25 0.75 0 
0.375 0.75 0 0.5 0.75 0 0.625 0.75 0 
0.75 0.75 0 0.875 0.75 0 1 0.75 0 
1.125 0.75 0 1.25 0.75 0 1.375 0.75 0 
1.5 0.75 0 1.625 0.75 0 1.75 0.75 0 
1.875 0.75 0 2 0.75 0 2.125 0.75 0 
2.25 0.75 0 2.375 0.75 0 2.5 0.75 0 
2.625 0.75 0 2.75 0.75 0 2.875 0.75 0 
3 0.75 0 3.125 0.75 0 3.25 0.75 0 
3.375 0.75 0 3.5 0.75 0 3.625 0.75 0 
3.75 0.75 0 3.875 0.75 0 4 0.75 0 
0 0.875 0 0.125 0.875 0 0.25 0.875 0 
0.375 0.875 0 0.5 0.875 0 0.625 0.875 0 
0.75 0.875 0 0.875 0.875 0 1 0.875 0 
1.125 0.875 0 1.25 0.875 0 1.375 0.875 0 
1.5 0.875 0 1.625 0.875 0 1.75 0.875 0 
1.875 0.875 0 2 0.875 0 2.125 0.875 0 
2.25 0.875 0 2.375 0.875 0 2.5 0.875 0 
2.625 0.875 0 2.75 0.875 0 2.875 0.875 0 
3 0.875 0 3.125 0.875 0 3.25 0.875 0 
3.375 0.875 0 3.5 0.875 0 3.625 0.875 0 
3.75 0.875 0 3.875 0.875 0 4 0.875 0 
0 1 0 0.125 1 0 0.25 1 0 
0.375 1 0 0.5 1 0 0.625 1 0 
0.75 1 0 0.875 1 0 1 1 0 
1.125 1 0 1.25 1 0 1.375 1 0 
1.5 1 0 1.625 1 0 1.75 1 0 
1.875 1 0 2 1 0 2.125 1 0 
2.25 1 0 2.375 1 0 2.5 1 0 
2.625 1 0 2.75 1 0 2.875 1 0 
3 1 0 3.125 1 0 3.25 1 0 
3.375 1 0 3.5 1 0 3.625 1 0 
3.75 1 0 3.875 1 0 4 1 0 
0 0 0.125 0.125 0 0.125 0.25 0 0.125 
0.375 0 0.125 0.5 0 0.125 0.625 0 0.125 
0.75 0 0.125 0.875 0 0.125 1 0 0.125 
1.125 0 0.125 1.25 0 0.125 1.375 0 0.125 
1.5 0 0.125 1.625 0 0.125 1.75 0 0.125 
1.875 0 0.125 2 0 0.125 2.125 0 0.125 
2.25 0 0.125 2.375 0 0.125 2.5 0 0.125 
2.625 0 0.125 2.75 0 0.125 2.875 0 0.125 
3 0 0.125 3.125 0 0.125 3.25 0 0.125 
3.375 0 0.125 3.5 0 0.125 3.625 0 0.125 
3.75 0 0.125 3.875 0 0.125 4 0 0.125 
0 0.125 0.125 0.125 0.125 0.125 0.25 0.125 0.125 
0.375 0.125 0.125 0.5 0.125 0.125 0.625 0.125 0.125 
0.75 0.125 0.125 0.875 0.125 0.125 1 0.125 0.125 
1.125 0.125 0.125 1.25 0.125 0.125 1.375 0.125 0.125 
1.5 0.125 0.125 1.625 0.125 0.125 1.75 0.125 0.125 
1.875 0.125 0.125 2 0.125 0.125 2.125 0.125 0.125 
2.25 0.125 0.125 2.375 0.125 0.125 2.5 0.125 0.125 
2.625 0.125 0.125 2.75 0.125 0.125 2.875 0.125 0.125 
3 0.125 0.125 3.125 0.125 0.125 3.25 0.125 0.125 
3.375 0.125 0.125 3.5 0.125 0.125 3.625 0.125 0.125 
3.75 0.125 0.125 3.875 0.125 0.125 4 0.125 0.125 
0 0.25 0.125 0.125 0.25 0.125 0.25 0.25 0.125 
0.375 0.25 0.125 0.5 0.25 0.125 0.625 0.25 0.125 
0.75 0.25 0.125 0.875 0.25 0.125 1 0.25 0.125 
1.125 0.25 0.125 1.25 0.25 0.125 1.375 0.25 0.125 
1.5 0.25 0.125 1.625 0.25 0.125 1.75 0.25 0.125 
1.875 0.25 0.125 2 0.25 0.125 2.125 0.25 0.125 
2.25 0.25 0.125 2.375 0.25 0.125 2.5 0.25 0.125 
2.625 0.25 0.125 2.75 0.25 0.125 2.875 0.25 0.125 
3 0.25 0.125 3.125 0.25 0.125 3.25 0.25 0.125 
3.375 0.25 0.125 3.5 0.25 0.125 3.625 0.25 0.125 
3.75 0.25 0.125 3.875 0.25 0.125 4 0.25 0.125 
0 0.375 0.125 0.125 0.375 0.125 0.25 0.375 0.125 
0.375 0.375 0.125 0.5 0.375 0.125 0.625 0.375 0.125 
0.75 0.375 0.125 0.875 0.375 0.125 1 0.375 0.125 
1.125 0.375 0.125 1.25 0.375 0.125 1.375 0.375 0.125 
1.5 0.375 0.125 1.625 0.375 0.125 1.75 0.375 0.125 
1.875 0.375 0.125 2 0.375 0.125 2.125 0.375 0.125 
2.25 0.375 0.125 2.375 0.375 0.125 2.5 0.375 0.125 
2.625 0.375 0.125 2.75 0.375 0.125 2.875 0.375 0.125 
3 0.375 0.125 3.125 0.375 0.125 3.25 0.375 0.125 
3.375 0.375 0.125 3.5 0.375 0.125 3.625 0.375 0.125 
3.75 0.375 0.125 3.875 0.375 0.125 4 0.375 0.125 
0 0.5 0.125 0.125 0.5 0.125 0.25 0.5 0.125 
0.375 0.5 0.125 0.5 0.5 0.125 0.625 0.5 0.125 
0.75 0.5 0.125 0.875 0.5 0.125 1 0.5 0.125 
1.125 0.5 0.125 1.25 0.5 0.125 1.375 0.5 0.125 
1.5 0.5 0.125 1.625 0.5 0.125 1.75 0.5 0.125 
1.875 0.5 0.125 2 0.5 0.125 2.125 0.5 0.125 
2.25 0.5 0.125 2.375 0.5 0.125 2.5 0.5 0.125 
2.625 0.5 0.125 2.75 0.5 0.125 2.875 0.5 0.125 
3 0.5 0.125 3.125 0.5 0.125 3.25 0.5 0.125 
3.375 0.5 0.125 3.5 0.5 0.125 3.625 0.5 0.125 
3.75 0.5 0.125 3.875 0.5 0.125 4 0.5 0.125 
0 0.625 0.125 0.125 0.625 0.125 0.25 0.625 0.125 
0.375 0.625 0.125 0.5 0.625 0.125 0.625 0.625 0.125 
0.75 0.625 0.125 0.875 0.625 0.125 1 0.625 0.125 
1.125 0.625 0.125 1.25 0.625 0.125 1.375 0.625 0.125 
1.5 0.625 0.125 1.625 0.625 0.125 1.75 0.625 0.125 
1.875 0.625 0.125 2 0.625 0.125 2.125 0.625 0.125 
2.25 0.625 0.125 2.375 0.625 0.125 2.5 0.625 0.125 
2.625 0.625 0.125 2.75 0.625 0.125 2.875 0.625 0.125 
3 0.625 0.125 3.125 0.625 0.125 3.25 0.625 0.125 
3.375 0.625 0.125 3.5 0.625 0.125 3.625 0.625 0.125 
3.75 0.625 0.125 3.875 0.625 0.125 4 0.625 0.125 
0 0.75 0.125 0.125 0.75 0.125 0.25 0.75 0.125 
0.375 0.75 0.125 0.5 0.75 0.125 0.625 0.75 0.125 
0.75 0.75 0.125 0.875 0.75 0.125 1 0.75 0.125 
1.125 0.75 0.125 1.25 0.75 0.125 1.375 0.75 0.125 
1.5 0.75 0.125 1.625 0.75 0.125 1.75 0.75 0.125 
1.875 0.75 0.125 2 0.75 0.125 2.125 0.75 0.125 
2.25 0.75 0.125 2.375 0.75 0.125 2.5 0.75 0.125 
2.625 0.75 0.125 2.75 0.75 0.125 2.875 0.75 0.125 
3 0.75 0.125 3.125 0.75 0.125 3.25 0.75 0.125 
3.375 0.75 0.125 3.5 0.75 0.125 3.625 0.75 0.125 
3.75 0.75 0.125 3.875 0.75 0.125 4 0.75 0.125 
0 0.875 0.125 0.125 0.875 0.125 0.25 0.875 0.125 
0.375 0.875 0.125 0.5 0.875 0.125 0.625 0.875 0.125 
0.75 0.875 0.125 0.875 0.875 0.125 1 0.875 0.125 
1.125 0.875 0.125 1.25 0.875 0.125 1.375 0.875 0.125 
1.5 0.875 0.125 1.625 0.875 0.125 1.75 0.875 0.125 
1.875 0.875 0.125 2 0.875 0.125 2.125 0.875 0.125 
2.25 0.875 0.125 2.375 0.875 0.125 2.5 0.875 0.125 
2.625 0.875 0.125 2.75 0.875 0.125 2.875 0.875 0.125 
3 0.875 0.125 3.125 0.875 0.125 3.25 0.875 0.125 
3.375 0.875 0.125 3.5 0.875 0.125 3.625 0.875 0.125 
3.75 0.875 0.125 3.875 0.875 0.125 4 0.875 0.125 
0 1 0.125 0.125 1 0.125 0.25 1 0.125 
0.375 1 0.125 0.5 1 0.125 0.625 1 0.125 
0.75 1 0.125 0.875 1 0.125 1 1 0.125 
1.125 1 0.125 1.25 1 0.125 1.375 1 0.125 
1.5 1 0.125 1.625 1 0.125 1.75 1 0.125 
1.875 1 0.125 2 1 0.125 2.125 1 0.125 
2.25 1 0.125 2.375 1 0.125 2.5 1 0.125 
2.625 1 0.125 2.75 1 0.125 2.875 1 0.125 
3 1 0.125 3.125 1 0.125 3.25 1 0.125 
3.375 1 0.125 3.5 1 0.125 3.625 1 0.125 
3.75 1 0.125 3.875 1 0.125 4 1 0.125 
0 0 0.25 0.125 0 0.25 0.25 0 0.25 
0.375 0 0.25 0.5 0 0.25 0.625 0 0.25 
0.75 0 0.25 0.875 0 0.25 1 0 0.25 
1.125 0 0.25 1.25 0 0.25 1.375 0 0.25 
1.5 0 0.25 1.625 0 0.25 1.75 0 0.25 
1.875 0 0.25 2 0 0.25 2.125 0 0.25 
2.25 0 0.25 2.375 0 0.25 2.5 0 0.25 
2.625 0 0.25 2.75 0 0.25 2.875 0 0.25 
3 0 0.25 3.125 0 0.25 3.25 0 0.25 
3.375 0 0.25 3.5 0 0.25 3.625 0 0.25 
3.75 0 0.25 3.875 0 0.25 4 0 0.25 
0 0.125 0.25 0.125 0.125 0.25 0.25 0.125 0.25 
0.375 0.125 0.25 0.5 0.125 0.25 0.625 0.125 0.25 
0.75 0.125 0.25 0.875 0.125 0.25 1 0.125 0.25 
1.125 0.125 0.25 1.25 0.125 0.25 1.375 0.125 0.25 
1.5 0.125 0.25 1.625 0.125 0.25 1.75 0.125 0.25 
1.875 0.125 0.25 2 0.125 0.25 2.125 0.125 0.25 
2.25 0.125 0.25 2.375 0.125 0.25 2.5 0.125 0.25 
2.625 0.125 0.25 2.75 0.125 0.25 2.875 0.125 0.25 
3 0.125 0.25 3.125 0.125 0.25 3.25 0.125 0.25 
3.375 0.125 0.25 3.5 0.125 0.25 3.625 0.125 0.25 
3.75 0.125 0.25 3.875 0.125 0.25 4 0.125 0.25 
0 0.25 0.25 0.125 0.25 0.25 0.25 0.25 0.25 
0.375 0.25 0.25 0.5 0.25 0.25 0.625 0.25 0.25 
0.75 0.25 0.25 0.875 0.25 0.25 1 0.25 0.25 
1.125 0.25 0.25 1.25 0.25 0.25 1.375 0.25 0.25 
1.5 0.25 0.25 1.625 0.25 0.25 1.75 0.25 0.25 
1.875 0.25 0.25 2 0.25 0.25 2.125 0.25 0.25 
2.25 0.25 0.25 2.375 0.25 0.25 2.5 0.25 0.25 
2.625 0.25 0.25 2.75 0.25 0.25 2.875 0.25 0.25 
3 0.25 0.25 3.125 0.25 0.25 3.25 0.25 0.25 
3.375 0.25 0.25 3.5 0.25 0.25 3.625 0.25 0.25 
3.75 0.25 0.25 3.875 0.25 0.25 4 0.25 0.25 
0 0.375 0.25 0.125 0.375 0.25 0.25 0.375 0.25 
0.375 0.375 0.25 0.5 0.375 0.25 0.625 0.375 0.25 
0.75 0.375 0.25 0.875 0.375 0.25 1 0.375 0.25 
1.125 0.375 0.25 1.25 0.375 0.25 1.375 0.375 0.25 
[...]
POINT_DATA 4721
FIELD FieldData 2
DistanceToCenter 1 4721 float
16.9706 16.0312 15.0997 14.1774 13.2665 12.3693 11.4891 10.6301 9.79796 
9 8.24621 7.54983 6.9282 6.40312 6 5.74456 5.65685 5.74456 
6 6.40312 6.9282 7.54983 8.24621 9 9.79796 10.6301 11.4891 
12.3693 13.2665 14.1774 15.0997 16.0312 16.9706 16.7631 15.8114 14.8661 
13.9284 13 12.083 11.1803 10.2956 9.43398 8.60233 7.81025 7.07107 
6.40312 5.83095 5.38516 5.09902 5 5.09902 5.38516 5.83095 6.40312 
7.07107 7.81025 8.60233 9.43398 10.2956 11.1803 12.083 13 13.9284 
14.8661 15.8114 16.7631 16.6132 15.6525 14.6969 13.7477 12.8062 11.8743 
10.9545 10.0499 9.16515 8.30662 7.48331 6.7082 6 5.38516 4.89898 
4.58258 4.47214 4.58258 4.89898 5.38516 6 6.7082 7.48331 8.30662 
9.16515 10.0499 10.9545 11.8743 12.8062 13.7477 14.6969 15.6525 16.6132 
16.5227 15.5563 14.5945 13.6382 12.6886 11.7473 10.8167 9.8995 9 
8.12404 7.28011 6.48074 5.74456 5.09902 4.58258 4.24264 4.12311 4.24264 
4.58258 5.09902 5.74456 6.48074 7.28011 8.12404 9 9.8995 10.8167 
11.7473 12.6886 13.6382 14.5945 15.5563 16.5227 16.4924 15.5242 14.5602 
13.6015 12.6491 11.7047 10.7703 9.84886 8.94427 8.06226 7.2111 6.40312 
5.65685 5 4.47214 4.12311 4 4.12311 4.47214 5 5.65685 
6.40312 7.2111 8.06226 8.94427 9.84886 10.7703 11.7047 12.6491 13.6015 
14.5602 15.5242 16.4924 16.5227 15.5563 14.5945 13.6382 12.6886 11.7473 
10.8167 9.8995 9 8.12404 7.28011 6.48074 5.74456 5.09902 4.58258 
4.24264 4.12311 4.24264 4.58258 5.09902 5.74456 6.48074 7.28011 8.12404 
9 9.8995 10.8167 11.7473 12.6886 13.6382 14.5945 15.5563 16.5227 
16.6132 15.6525 14.6969 13.7477 12.8062 11.8743 10.9545 10.0499 9.16515 
8.30662 7.48331 6.7082 6 5.38516 4.89898 4.58258 4.47214 4.58258 
4.89898 5.38516 6 6.7082 7.48331 8.30662 9.16515 10.0499 10.9545 
11.8743 12.8062 13.7477 14.6969 15.6525 16.6132 16.7631 15.8114 14.8661 
13.9284 13 12.083 11.1803 10.2956 9.43398 8.60233 7.81025 7.07107 
6.40312 5.83095 5.38516 5.09902 5 5.09902 5.38516 5.83095 6.40312 
7.07107 7.81025 8.60233 9.43398 10.2956 11.1803 12.083 13 13.9284 
14.8661 15.8114 16.7631 16.9706 16.0312 15.0997 14.1774 13.2665 12.3693 
11.4891 10.6301 9.79796 9 8.24621 7.54983 6.9282 6.40312 6 
5.74456 5.65685 5.74456 6 6.40312 6.9282 7.54983 8.24621 9 
9.79796 10.6301 11.4891 12.3693 13.2665 14.1774 15.0997 16.0312 16.9706 
16.7631 15.8114 14.8661 13.9284 13 12.083 11.1803 10.2956 9.43398 
8.60233 7.81025 7.07107 6.40312 5.83095 5.38516 5.09902 5 5.09902 
5.38516 5.83095 6.40312 7.07107 7.81025 8.60233 9.43398 10.2956 11.1803 
12.083 13 13.9284 14.8661 15.8114 16.7631 16.5529 15.5885 14.6287 
13.6748 12.7279 11.7898 10.8628 9.94987 9.05539 8.18535 7.34847 6.55744 
5.83095 5.19615 4.69042 4.3589 4.24264 4.3589 4.69042 5.19615 5.83095 
6.55744 7.34847 8.18535 9.05539 9.94987 10.8628 11.7898 12.7279 13.6748 
14.6287 15.5885 16.5529 16.4012 15.4272 14.4568 13.4907 12.53 11.5758 
10.6301 9.69536 8.77496 7.87401 7 6.16441 5.38516 4.69042 4.12311 
3.74166 3.60555 3.74166 4.12311 4.69042 5.38516 6.16441 7 7.87401 
8.77496 9.69536 10.6301 11.5758 12.53 13.4907 14.4568 15.4272 16.4012 
16.3095 15.3297 14.3527 13.3791 12.4097 11.4455 10.4881 9.53939 8.60233 
7.68115 6.78233 5.91608 5.09902 4.3589 3.74166 3.31662 3.16228 3.31662 
3.74166 4.3589 5.09902 5.91608 6.78233 7.68115 8.60233 9.53939 10.4881 
11.4455 12.4097 13.3791 14.3527 15.3297 16.3095 16.2788 15.2971 14.3178 
13.3417 12.3693 11.4018 10.4403 9.48683 8.544 7.61577 6.7082 5.83095 
5 4.24264 3.60555 3.16228 3 3.16228 3.60555 4.24264 5 
5.83095 6.7082 7.61577 8.544 9.48683 10.4403 11.4018 12.3693 13.3417 
14.3178 15.2971 16.2788 16.3095 15.3297 14.3527 13.3791 12.4097 11.4455 
10.4881 9.53939 8.60233 7.68115 6.78233 5.91608 5.09902 4.3589 3.74166 
3.31662 3.16228 3.31662 3.74166 4.3589 5.09902 5.91608 6.78233 7.68115 
8.60233 9.53939 10.4881 11.4455 12.4097 13.3791 14.3527 15.3297 16.3095 
16.4012 15.4272 14.4568 13.4907 12.53 11.5758 10.6301 9.69536 8.77496 
7.87401 7 6.16441 5.38516 4.69042 4.12311 3.74166 3.60555 3.74166 
4.12311 4.69042 5.38516 6.16441 7 7.87401 8.77496 9.69536 10.6301 
11.5758 12.53 13.4907 14.4568 15.4272 16.4012 16.5529 15.5885 14.6287 
13.6748 12.7279 11.7898 10.8628 9.94987 9.05539 8.18535 7.34847 6.55744 
5.83095 5.19615 4.69042 4.3589 4.24264 4.3589 4.69042 5.19615 5.83095 
6.55744 7.34847 8.18535 9.05539 9.94987 10.8628 11.7898 12.7279 13.6748 
14.6287 15.5885 16.5529 16.7631 15.8114 14.8661 13.9284 13 12.083 
11.1803 10.2956 9.43398 8.60233 7.81025 7.07107 6.40312 5.83095 5.38516 
5.09902 5 5.09902 5.38516 5.83095 6.40312 7.07107 7.81025 8.60233 
9.43398 10.2956 11.1803 12.083 13 13.9284 14.8661 15.8114 16.7631 
16.6132 15.6525 14.6969 13.7477 12.8062 11.8743 10.9545 10.0499 9.16515 
8.30662 7.48331 6.7082 6 5.38516 4.89898 4.58258 4.47214 4.58258 
4.89898 5.38516 6 6.7082 7.48331 8.30662 9.16515 10.0499 10.9545 
11.8743 12.8062 13.7477 14.6969 15.6525 16.6132 16.4012 15.4272 14.4568 
13.4907 12.53 11.5758 10.6301 9.69536 8.77496 7.87401 7 6.16441 
5.38516 4.69042 4.12311 3.74166 3.60555 3.74166 4.12311 4.69042 5.38516 
6.16441 7 7.87401 8.77496 9.69536 10.6301 11.5758 12.53 13.4907 
14.4568 15.4272 16.4012 16.2481 15.2643 14.2829 13.3041 12.3288 11.3578 
10.3923 9.43398 8.48528 7.54983 6.63325 5.74456 4.89898 4.12311 3.4641 
3 2.82843 3 3.4641 4.12311 4.89898 5.74456 6.63325 7.54983 
8.48528 9.43398 10.3923 11.3578 12.3288 13.3041 14.2829 15.2643 16.2481 
16.1555 15.1658 14.1774 13.1909 12.2066 11.225 10.247 9.27362 8.30662 
7.34847 6.40312 5.47723 4.58258 3.74166 3 2.44949 2.23607 2.44949 
3 3.74166 4.58258 5.47723 6.40312 7.34847 8.30662 9.27362 10.247 
11.225 12.2066 13.1909 14.1774 15.1658 16.1555 16.1245 15.1327 14.1421 
13.1529 12.1655 11.1803 10.198 9.21954 8.24621 7.28011 6.32456 5.38516 
4.47214 3.60555 2.82843 2.23607 2 2.23607 2.82843 3.60555 4.47214 
5.38516 6.32456 7.28011 8.24621 9.21954 10.198 11.1803 12.1655 13.1529 
14.1421 15.1327 16.1245 16.1555 15.1658 14.1774 13.1909 12.2066 11.225 
10.247 9.27362 8.30662 7.34847 6.40312 5.47723 4.58258 3.74166 3 
2.44949 2.23607 2.44949 3 3.74166 4.58258 5.47723 6.40312 7.34847 
8.30662 9.27362 10.247 11.225 12.2066 13.1909 14.1774 15.1658 16.1555 
16.2481 15.2643 14.2829 13.3041 12.3288 11.3578 10.3923 9.43398 8.48528 
7.54983 6.63325 5.74456 4.89898 4.12311 3.4641 3 2.82843 3 
3.4641 4.12311 4.89898 5.74456 6.63325 7.54983 8.48528 9.43398 10.3923 
11.3578 12.3288 13.3041 14.2829 15.2643 16.2481 16.4012 15.4272 14.4568 
13.4907 12.53 11.5758 10.6301 9.69536 8.77496 7.87401 7 6.16441 
5.38516 4.69042 4.12311 3.74166 3.60555 3.74166 4.12311 4.69042 5.38516 
6.16441 7 7.87401 8.77496 9.69536 10.6301 11.5758 12.53 13.4907 
14.4568 15.4272 16.4012 16.6132 15.6525 14.6969 13.7477 12.8062 11.8743 
10.9545 10.0499 9.16515 8.30662 7.48331 6.7082 6 5.38516 4.89898 
4.58258 4.47214 4.58258 4.89898 5.38516 6 6.7082 7.48331 8.30662 
9.16515 10.0499 10.9545 11.8743 12.8062 13.7477 14.6969 15.6525 16.6132 
16.5227 15.5563 14.5945 13.6382 12.6886 11.7473 10.8167 9.8995 9 
8.12404 7.28011 6.48074 5.74456 5.09902 4.58258 4.24264 4.12311 4.24264 
4.58258 5.09902 5.74456 6.48074 7.28011 8.12404 9 9.8995 10.8167 
11.7473 12.6886 13.6382 14.5945 15.5563 16.5227 16.3095 15.3297 14.3527 
13.3791 12.4097 11.4455 10.4881 9.53939 8.60233 7.68115 6.78233 5.91608 
5.09902 4.3589 3.74166 3.31662 3.16228 3.31662 3.74166 4.3589 5.09902 
5.91608 6.78233 7.68115 8.60233 9.53939 10.4881 11.4455 12.4097 13.3791 
14.3527 15.3297 16.3095 16.1555 15.1658 14.1774 13.1909 12.2066 11.225 
10.247 9.27362 8.30662 7.34847 6.40312 5.47723 4.58258 3.74166 3 
2.44949 2.23607 2.44949 3 3.74166 4.58258 5.47723 6.40312 7.34847 
8.30662 9.27362 10.247 11.225 12.2066 13.1909 14.1774 15.1658 16.1555 
16.0624 15.0665 14.0712 13.0767 12.083 11.0905 10.0995 9.11043 8.12404 
7.14143 6.16441 5.19615 4.24264 3.31662 2.44949 1.73205 1.41421 1.73205 
2.44949 3.31662 4.24264 5.19615 6.16441 7.14143 8.12404 9.11043 10.0995 
11.0905 12.083 13.0767 14.0712 15.0665 16.0624 16.0312 15.0333 14.0357 
13.0384 12.0416 11.0454 10.0499 9.05539 8.06226 7.07107 6.08276 5.09902 
4.12311 3.16228 2.23607 1.41421 1 1.41421 2.23607 3.16228 4.12311 
5.09902 6.08276 7.07107 8.06226 9.05539 10.0499 11.0454 12.0416 13.0384 
14.0357 15.0333 16.0312 16.0624 15.0665 14.0712 13.0767 12.083 11.0905 
10.0995 9.11043 8.12404 7.14143 6.16441 5.19615 4.24264 3.31662 2.44949 
1.73205 1.41421 1.73205 2.44949 3.31662 4.24264 5.19615 6.16441 7.14143 
8.12404 9.11043 10.0995 11.0905 12.083 13.0767 14.0712 15.0665 16.0624 
16.1555 15.1658 14.1774 13.1909 12.2066 11.225 10.247 9.27362 8.30662 
7.34847 6.40312 5.47723 4.58258 3.74166 3 2.44949 2.23607 2.44949 
3 3.74166 4.58258 5.47723 6.40312 7.34847 8.30662 9.27362 10.247 
11.225 12.2066 13.1909 14.1774 15.1658 16.1555 16.3095 15.3297 14.3527 
13.3791 12.4097 11.4455 10.4881 9.53939 8.60233 7.68115 6.78233 5.91608 
5.09902 4.3589 3.74166 3.31662 3.16228 3.31662 3.74166 4.3589 5.09902 
5.91608 6.78233 7.68115 8.60233 9.53939 10.4881 11.4455 12.4097 13.3791 
14.3527 15.3297 16.3095 16.5227 15.5563 14.5945 13.6382 12.6886 11.7473 
10.8167 9.8995 9 8.12404 7.28011 6.48074 5.74456 5.09902 4.58258 
4.24264 4.12311 4.24264 4.58258 5.09902 5.74456 6.48074 7.28011 8.12404 
9 9.8995 10.8167 11.7473 12.6886 13.6382 14.5945 15.5563 16.5227 
16.4924 15.5242 14.5602 13.6015 12.6491 11.7047 10.7703 9.84886 8.94427 
8.06226 7.2111 6.40312 5.65685 5 4.47214 4.12311 4 4.12311 
4.47214 5 5.65685 6.40312 7.2111 8.06226 8.94427 9.84886 10.7703 
11.7047 12.6491 13.6015 14.5602 15.5242 16.4924 16.2788 15.2971 14.3178 
13.3417 12.3693 11.4018 10.4403 9.48683 8.544 7.61577 6.7082 5.83095 
5 4.24264 3.60555 3.16228 3 3.16228 3.60555 4.24264 5 
5.83095 6.7082 7.61577 8.544 9.48683 10.4403 11.4018 12.3693 13.3417 
14.3178 15.2971 16.2788 16.1245 15.1327 14.1421 13.1529 12.1655 11.1803 
10.198 9.21954 8.24621 7.28011 6.32456 5.38516 4.47214 3.60555 2.82843 
2.23607 2 2.23607 2.82843 3.60555 4.47214 5.38516 6.32456 7.28011 
8.24621 9.21954 10.198 11.1803 12.1655 13.1529 14.1421 15.1327 16.1245 
16.0312 15.0333 14.0357 13.0384 12.0416 11.0454 10.0499 9.05539 8.06226 
7.07107 6.08276 5.09902 4.12311 3.16228 2.23607 1.41421 1 1.41421 
2.23607 3.16228 4.12311 5.09902 6.08276 7.07107 8.06226 9.05539 10.0499 
11.0454 12.0416 13.0384 14.0357 15.0333 16.0312 16 15 14 
13 12 11 10 9 8 7 6 5 
4 3 2 1 0 1 2 3 4 
5 6 7 8 9 10 11 12 13 
14 15 16 16.0312 15.0333 14.0357 13.0384 12.0416 11.0454 
10.0499 9.05539 8.06226 7.07107 6.08276 5.09902 4.12311 3.16228 2.23607 
1.41421 1 1.41421 2.23607 3.16228 4.12311 5.09902 6.08276 7.07107 
8.06226 9.05539 10.0499 11.0454 12.0416 13.0384 14.0357 15.0333 16.0312 
16.1245 15.1327 14.1421 13.1529 12.1655 11.1803 10.198 9.21954 8.24621 
7.28011 6.32456 5.38516 4.47214 3.60555 2.82843 2.23607 2 2.23607 
2.82843 3.60555 4.47214 5.38516 6.32456 7.28011 8.24621 9.21954 10.198 
11.1803 12.1655 13.1529 14.1421 15.1327 16.1245 16.2788 15.2971 14.3178 
13.3417 12.3693 11.4018 10.4403 9.48683 8.544 7.61577 6.7082 5.83095 
5 4.24264 3.60555 3.16228 3 3.16228 3.60555 4.24264 5 
5.83095 6.7082 7.61577 8.544 9.48683 10.4403 11.4018 12.3693 13.3417 
14.3178 15.2971 16.2788 16.4924 15.5242 14.5602 13.6015 12.6491 11.7047 
10.7703 9.84886 8.94427 8.06226 7.2111 6.40312 5.65685 5 4.47214 
4.12311 4 4.12311 4.47214 5 5.65685 6.40312 7.2111 8.06226 
8.94427 9.84886 10.7703 11.7047 12.6491 13.6015 14.5602 15.5242 16.4924 
16.5227 15.5563 14.5945 13.6382 12.6886 11.7473 10.8167 9.8995 9 
8.12404 7.28011 6.48074 5.74456 5.09902 4.58258 4.24264 4.12311 4.24264 
4.58258 5.09902 5.74456 6.48074 7.28011 8.12404 9 9.8995 10.8167 
11.7473 12.6886 13.6382 14.5945 15.5563 16.5227 16.3095 15.3297 14.3527 
13.3791 12.4097 11.4455 10.4881 9.53939 8.60233 7.68115 6.78233 5.91608 
5.09902 4.3589 3.74166 3.31662 3.16228 3.31662 3.74166 4.3589 5.09902 
5.91608 6.78233 7.68115 8.60233 9.53939 10.4881 11.4455 12.4097 13.3791 
14.3527 15.3297 16.3095 16.1555 15.1658 14.1774 13.1909 12.2066 11.225 
10.247 9.27362 8.30662 7.34847 6.40312 5.47723 4.58258 3.74166 3 
2.44949 2.23607 2.44949 3 3.74166 4.58258 5.47723 6.40312 7.34847 
8.30662 9.27362 10.247 11.225 12.2066 13.1909 14.1774 15.1658 16.1555 
16.0624 15.0665 14.0712 13.0767 12.083 11.0905 10.0995 9.11043 8.12404 
7.14143 6.16441 5.19615 4.24264 3.31662 2.44949 1.73205 1.41421 1.73205 
2.44949 3.31662 4.24264 5.19615 6.16441 7.14143 8.12404 9.11043 10.0995 
11.0905 12.083 13.0767 14.0712 15.0665 16.0624 16.0312 15.0333 14.0357 
13.0384 12.0416 11.0454 10.0499 9.05539 8.06226 7.07107 6.08276 5.09902 
4.12311 3.16228 2.23607 1.41421 1 1.41421 2.23607 3.16228 4.12311 
5.09902 6.08276 7.07107 8.06226 9.05539 10.0499 11.0454 12.0416 13.0384 
14.0357 15.0333 16.0312 16.0624 15.0665 14.0712 13.0767 12.083 11.0905 
10.0995 9.11043 8.12404 7.14143 6.16441 5.19615 4.24264 3.31662 2.44949 
1.73205 1.41421 1.73205 2.44949 3.31662 4.24264 5.19615 6.16441 7.14143 
8.12404 9.11043 10.0995 11.0905 12.083 13.0767 14.0712 15.0665 16.0624 
16.1555 15.1658 14.1774 13.1909 12.2066 11.225 10.247 9.27362 8.30662 
7.34847 6.40312 5.47723 4.58258 3.74166 3 2.44949 2.23607 2.44949 
3 3.74166 4.58258 5.47723 6.40312 7.34847 8.30662 9.27362 10.247 
11.225 12.2066 13.1909 14.1774 15.1658 16.1555 16.3095 15.3297 14.3527 
13.3791 12.4097 11.4455 10.4881 9.53939 8.60233 7.68115 6.78233 5.91608 
5.09902 4.3589 3.74166 3.31662 3.16228 3.31662 3.74166 4.3589 5.09902 
5.91608 6.78233 7.68115 8.60233 9.53939 10.4881 11.4455 12.4097 13.3791 
14.3527 15.3297 16.3095 16.5227 15.5563 14.5945 13.6382 12.6886 11.7473 
10.8167 9.8995 9 8.12404 7.28011 6.48074 5.74456 5.09902 4.58258 
4.24264 4.12311 4.24264 4.58258 5.09902 5.74456 6.48074 7.28011 8.12404 
9 9.8995 10.8167 11.7473 12.6886 13.6382 14.5945 15.5563 16.5227 
16.6132 15.6525 14.6969 13.7477 12.8062 11.8743 10.9545 10.0499 9.16515 
8.30662 7.48331 6.7082 6 5.38516 4.89898 4.58258 4.47214 4.58258 
4.89898 5.38516 6 6.7082 7.48331 8.30662 9.16515 10.0499 10.9545 
11.8743 12.8062 13.7477 14.6969 15.6525 16.6132 16.4012 15.4272 14.4568 
13.4907 12.53 11.5758 10.6301 9.69536 8.77496 7.87401 7 6.16441 
5.38516 4.69042 4.12311 3.74166 3.60555 3.74166 4.12311 4.69042 5.38516 
6.16441 7 7.87401 8.77496 9.69536 10.6301 11.5758 12.53 13.4907 
14.4568 15.4272 16.4012 16.2481 15.2643 14.2829 13.3041 12.3288 11.3578 
10.3923 9.43398 8.48528 7.54983 6.63325 5.74456 4.89898 4.12311 3.4641 
3 2.82843 3 3.4641 4.12311 4.89898 5.74456 6.63325 7.54983 
8.48528 9.43398 10.3923 11.3578 12.3288 13.3041 14.2829 15.2643 16.2481 
16.1555 15.1658 14.1774 13.1909 12.2066 11.225 10.247 9.27362 8.30662 
7.34847 6.40312 5.47723 4.58258 3.74166 3 2.44949 2.23607 2.44949 
3 3.74166 4.58258 5.47723 6.40312 7.34847 8.30662 9.27362 10.247 
11.225 12.2066 13.1909 14.1774 15.1658 16.1555 16.1245 15.1327 14.1421 
13.1529 12.1655 11.1803 10.198 9.21954 8.24621 7.28011 6.32456 5.38516 
4.47214 3.60555 2.82843 2.23607 2 2.23607 2.82843 3.60555 4.47214 
5.38516 6.32456 7.28011 8.24621 9.21954 10.198 11.1803 12.1655 13.1529 
14.1421 15.1327 16.1245 16.1555 15.1658 14.1774 13.1909 12.2066 11.225 
10.247 9.27362 8.30662 7.34847 6.40312 5.47723 4.58258 3.74166 3 
2.44949 2.23607 2.44949 3 3.74166 4.58258 5.47723 6.40312 7.34847 
8.30662 9.27362 10.247 11.225 12.2066 13.1909 14.1774 15.1658 16.1555 
16.2481 15.2643 14.2829 13.3041 12.3288 11.3578 10.3923 9.43398 8.48528 
7.54983 6.63325 5.74456 4.89898 4.12311 3.4641 3 2.82843 3 
3.4641 4.12311 4.89898 5.74456 6.63325 7.54983 8.48528 9.43398 10.3923 
11.3578 12.3288 13.3041 14.2829 15.2643 16.2481 16.4012 15.4272 14.4568 
13.4907 12.53 11.5758 10.6301 9.69536 8.77496 7.87401 7 6.16441 
5.38516 4.69042 4.12311 3.74166 3.60555 3.74166 4.12311 4.69042 5.38516 
6.16441 7 7.87401 8.77496 9.69536 10.6301 11.5758 12.53 13.4907 
14.4568 15.4272 16.4012 16.6132 15.6525 14.6969 13.7477 12.8062 11.8743 
10.9545 10.0499 9.16515 8.30662 7.48331 6.7082 6 5.38516 4.89898 
4.58258 4.47214 4.58258 4.89898 5.38516 6 6.7082 7.48331 8.30662 
9.16515 10.0499 10.9545 11.8743 12.8062 13.7477 14.6969 15.6525 16.6132 
16.7631 15.8114 14.8661 13.9284 13 12.083 11.1803 10.2956 9.43398 
8.60233 7.81025 7.07107 6.40312 5.83095 5.38516 5.09902 5 5.09902 
5.38516 5.83095 6.40312 7.07107 7.81025 8.60233 9.43398 10.2956 11.1803 
12.083 13 13.9284 14.8661 15.8114 16.7631 16.5529 15.5885 14.6287 
13.6748 12.7279 11.7898 10.8628 9.94987 9.05539 8.18535 7.34847 6.55744 
5.83095 5.19615 4.69042 4.3589 4.24264 4.3589 4.69042 5.19615 5.83095 
6.55744 7.34847 8.18535 9.05539 9.94987 10.8628 11.7898 12.7279 13.6748 
14.6287 15.5885 16.5529 16.4012 15.4272 14.4568 13.4907 12.53 11.5758 
10.6301 9.69536 8.77496 7.87401 7 6.16441 5.38516 4.69042 4.12311 
3.74166 3.60555 3.74166 4.12311 4.69042 5.38516 6.16441 7 7.87401 
8.77496 9.69536 10.6301 11.5758 12.53 13.4907 14.4568 15.4272 16.4012 
16.3095 15.3297 14.3527 13.3791 12.4097 11.4455 10.4881 9.53939 8.60233 
7.68115 6.78233 5.91608 5.09902 4.3589 3.74166 3.31662 3.16228 3.31662 
3.74166 4.3589 5.09902 5.91608 6.78233 7.68115 8.60233 9.53939 10.4881 
11.4455 12.4097 13.3791 14.3527 15.3297 16.3095 16.2788 15.2971 14.3178 
13.3417 12.3693 11.4018 10.4403 9.48683 8.544 7.61577 6.7082 5.83095 
5 4.24264 3.60555 3.16228 3 3.16228 3.60555 4.24264 5 
5.83095 6.7082 7.61577 8.544 9.48683 10.4403 11.4018 12.3693 13.3417 
14.3178 15.2971 16.2788 16.3095 15.3297 14.3527 13.3791 12.4097 11.4455 
10.4881 9.53939 8.60233 7.68115 6.78233 5.91608 5.09902 4.3589 3.74166 
3.31662 3.16228 3.31662 3.74166 4.3589 5.09902 5.91608 6.78233 7.68115 
8.60233 9.53939 10.4881 11.4455 12.4097 13.3791 14.3527 15.3297 16.3095 
16.4012 15.4272 14.4568 13.4907 12.53 11.5758 10.6301 9.69536 8.77496 
7.87401 7 6.16441 5.38516 4.69042 4.12311 3.74166 3.60555 3.74166 
4.12311 4.69042 5.38516 6.16441 7 7.87401 8.77496 9.69536 10.6301 
11.5758 12.53 13.4907 14.4568 15.4272 16.4012 16.5529 15.5885 14.6287 
13.6748 12.7279 11.7898 10.8628 9.94987 9.05539 8.18535 7.34847 6.55744 
5.83095 5.19615 4.69042 4.3589 4.24264 4.3589 4.69042 5.19615 5.83095 
6.55744 7.34847 8.18535 9.05539 9.94987 10.8628 11.7898 12.7279 13.6748 
14.6287 15.5885 16.5529 16.7631 15.8114 14.8661 13.9284 13 12.083 
11.1803 10.2956 9.43398 8.60233 7.81025 7.07107 6.40312 5.83095 5.38516 
5.09902 5 5.09902 5.38516 5.83095 6.40312 7.07107 7.81025 8.60233 
9.43398 10.2956 11.1803 12.083 13 13.9284 14.8661 15.8114 16.7631 
16.9706 16.0312 15.0997 14.1774 13.2665 12.3693 11.4891 10.6301 9.79796 
9 8.24621 7.54983 6.9282 6.40312 6 5.74456 5.65685 5.74456 
6 6.40312 6.9282 7.54983 8.24621 9 9.79796 10.6301 11.4891 
12.3693 13.2665 14.1774 15.0997 16.0312 16.9706 16.7631 15.8114 14.8661 
13.9284 13 12.083 11.1803 10.2956 9.43398 8.60233 7.81025 7.07107 
6.40312 5.83095 5.38516 5.09902 5 5.09902 5.38516 5.83095 6.40312 
7.07107 7.81025 8.60233 9.43398 10.2956 11.1803 12.083 13 13.9284 
14.8661 15.8114 16.7631 16.6132 15.6525 14.6969 13.7477 12.8062 11.8743 
10.9545 10.0499 9.16515 8.30662 7.48331 6.7082 6 5.38516 4.89898 
4.58258 4.47214 4.58258 4.89898 5.38516 6 6.7082 7.48331 8.30662 
9.16515 10.0499 10.9545 11.8743 12.8062 13.7477 14.6969 15.6525 16.6132 
16.5227 15.5563 14.5945 13.6382 12.6886 11.7473 10.8167 9.8995 9 
8.12404 7.28011 6.48074 5.74456 5.09902 4.58258 4.24264 4.12311 4.24264 
4.58258 5.09902 5.74456 6.48074 7.28011 8.12404 9 9.8995 10.8167 
11.7473 12.6886 13.6382 14.5945 15.5563 16.5227 16.4924 15.5242 14.5602 
13.6015 12.6491 11.7047 10.7703 9.84886 8.94427 8.06226 7.2111 6.40312 
5.65685 5 4.47214 4.12311 4 4.12311 4.47214 5 5.65685 
6.40312 7.2111 8.06226 8.94427 9.84886 10.7703 11.7047 12.6491 13.6015 
14.5602 15.5242 16.4924 16.5227 15.5563 14.5945 13.6382 12.6886 11.7473 
10.8167 9.8995 9 8.12404 7.28011 6.48074 5.74456 5.09902 4.58258 
4.24264 4.12311 4.24264 4.58258 5.09902 5.74456 6.48074 7.28011 8.12404 
9 9.8995 10.8167 11.7473 12.6886 13.6382 14.5945 15.5563 16.5227 
16.6132 15.6525 14.6969 13.7477 12.8062 11.8743 10.9545 10.0499 9.16515 
8.30662 7.48331 6.7082 6 5.38516 4.89898 4.58258 4.47214 4.58258 
4.89898 5.38516 6 6.7082 7.48331 8.30662 9.16515 10.0499 10.9545 