# vtk DataFile Version 5.1
vtk output
ASCII
DATASET UNSTRUCTURED_GRID
POINTS 189 float
0 0 0 1 0 0 2 0 0 
3 0 0 4 0 0 0 1 0 
1 1 0 2 1 0 3 1 0 
4 1 0 0 2 0 1 2 0 
2 2 0 3 2 0 4 2 0 
0 3 0 1 3 0 2 3 0 
3 3 0 4 3 0 0 4 0 
1 4 0 2 4 0 3 4 0 
4 4 0 0 0 1 1 0 1 
2 0 1 3 0 1 4 0 1 
0 1 1 1 1 1 2 1 1 
3 1 1 4 1 1 0 2 1 
1 2 1 2 2 1 3 2 1 
4 2 1 0 3 1 1 3 1 
2 3 1 3 3 1 4 3 1 
0 4 1 1 4 1 2 4 1 
3 4 1 4 4 1 0 0 2 
1 0 2 2 0 2 3 0 2 
4 0 2 0 1 2 1 1 2 
2 1 2 3 1 2 4 1 2 
0 2 2 1 2 2 2 2 2 
3 2 2 4 2 2 0 3 2 
1 3 2 2 3 2 3 3 2 
4 3 2 0 4 2 1 4 2 
2 4 2 3 4 2 4 4 2 
0 0 3 1 0 3 2 0 3 
3 0 3 4 0 3 0 1 3 
1 1 3 2 1 3 3 1 3 
4 1 3 0 2 3 1 2 3 
2 2 3 3 2 3 4 2 3 
0 3 3 1 3 3 2 3 3 
3 3 3 4 3 3 0 4 3 
1 4 3 2 4 3 3 4 3 
4 4 3 0 0 4 1 0 4 
2 0 4 3 0 4 4 0 4 
0 1 4 1 1 4 2 1 4 
3 1 4 4 1 4 0 2 4 
1 2 4 2 2 4 3 2 4 
4 2 4 0 3 4 1 3 4 
2 3 4 3 3 4 4 3 4 
0 4 4 1 4 4 2 4 4 
3 4 4 4 4 4 0.5 0.5 0.5 
1.5 0.5 0.5 2.5 0.5 0.5 3.5 0.5 0.5 
0.5 1.5 0.5 1.5 1.5 0.5 2.5 1.5 0.5 
3.5 1.5 0.5 0.5 2.5 0.5 1.5 2.5 0.5 
2.5 2.5 0.5 3.5 2.5 0.5 0.5 3.5 0.5 
1.5 3.5 0.5 2.5 3.5 0.5 3.5 3.5 0.5 
0.5 0.5 1.5 1.5 0.5 1.5 2.5 0.5 1.5 
3.5 0.5 1.5 0.5 1.5 1.5 1.5 1.5 1.5 
2.5 1.5 1.5 3.5 1.5 1.5 0.5 2.5 1.5 
1.5 2.5 1.5 2.5 2.5 1.5 3.5 2.5 1.5 
0.5 3.5 1.5 1.5 3.5 1.5 2.5 3.5 1.5 
3.5 3.5 1.5 0.5 0.5 2.5 1.5 0.5 2.5 
2.5 0.5 2.5 3.5 0.5 2.5 0.5 1.5 2.5 
1.5 1.5 2.5 2.5 1.5 2.5 3.5 1.5 2.5 
0.5 2.5 2.5 1.5 2.5 2.5 2.5 2.5 2.5 
3.5 2.5 2.5 0.5 3.5 2.5 1.5 3.5 2.5 
2.5 3.5 2.5 3.5 3.5 2.5 0.5 0.5 3.5 
1.5 0.5 3.5 2.5 0.5 3.5 3.5 0.5 3.5 
0.5 1.5 3.5 1.5 1.5 3.5 2.5 1.5 3.5 
3.5 1.5 3.5 0.5 2.5 3.5 1.5 2.5 3.5 
2.5 2.5 3.5 3.5 2.5 3.5 0.5 3.5 3.5 
1.5 3.5 3.5 2.5 3.5 3.5 3.5 3.5 3.5 

METADATA
INFORMATION 2
NAME L2_NORM_RANGE LOCATION vtkDataArray
DATA 2 0 6.9282 
NAME L2_NORM_FINITE_RANGE LOCATION vtkDataArray
DATA 2 0 6.9282 

CELLS 769 3072
OFFSETS vtktypeint64
0 4 8 12 16 20 24 28 32 
36 40 44 48 52 56 60 64 68 
72 76 80 84 88 92 96 100 104 
108 112 116 120 124 128 132 136 140 
144 148 152 156 160 164 168 172 176 
180 184 188 192 196 200 204 208 212 
216 220 224 228 232 236 240 244 248 
252 256 260 264 268 272 276 280 284 
288 292 296 300 304 308 312 316 320 
324 328 332 336 340 344 348 352 356 
360 364 368 372 376 380 384 388 392 
396 400 404 408 412 416 420 424 428 
432 436 440 444 448 452 456 460 464 
468 472 476 480 484 488 492 496 500 
504 508 512 516 520 524 528 532 536 
540 544 548 552 556 560 564 568 572 
576 580 584 588 592 596 600 604 608 
612 616 620 624 628 632 636 640 644 
648 652 656 660 664 668 672 676 680 
684 688 692 696 700 704 708 712 716 
720 724 728 732 736 740 744 748 752 
756 760 764 768 772 776 780 784 788 
792 796 800 804 808 812 816 820 824 
828 832 836 840 844 848 852 856 860 
864 868 872 876 880 884 888 892 896 
900 904 908 912 916 920 924 928 932 
936 940 944 948 952 956 960 964 968 
972 976 980 984 988 992 996 1000 1004 
1008 1012 1016 1020 1024 1028 1032 1036 1040 
1044 1048 1052 1056 1060 1064 1068 1072 1076 
1080 1084 1088 1092 1096 1100 1104 1108 1112 
1116 1120 1124 1128 1132 1136 1140 1144 1148 
1152 1156 1160 1164 1168 1172 1176 1180 1184 
1188 1192 1196 1200 1204 1208 1212 1216 1220 
1224 1228 1232 1236 1240 1244 1248 1252 1256 
1260 1264 1268 1272 1276 1280 1284 1288 1292 
1296 1300 1304 1308 1312 1316 1320 1324 1328 
1332 1336 1340 1344 1348 1352 1356 1360 1364 
1368 1372 1376 1380 1384 1388 1392 1396 1400 
1404 1408 1412 1416 1420 1424 1428 1432 1436 
1440 1444 1448 1452 1456 1460 1464 1468 1472 
1476 1480 1484 1488 1492 1496 1500 1504 1508 
1512 1516 1520 1524 1528 1532 1536 1540 1544 
1548 1552 1556 1560 1564 1568 1572 1576 1580 
1584 1588 1592 1596 1600 1604 1608 1612 1616 
1620 1624 1628 1632 1636 1640 1644 1648 1652 
1656 1660 1664 1668 1672 1676 1680 1684 1688 
1692 1696 1700 1704 1708 1712 1716 1720 1724 
1728 1732 1736 1740 1744 1748 1752 1756 1760 
1764 1768 1772 1776 1780 1784 1788 1792 1796 
1800 1804 1808 1812 1816 1820 1824 1828 1832 
1836 1840 1844 1848 1852 1856 1860 1864 1868 
1872 1876 1880 1884 1888 1892 1896 1900 1904 
1908 1912 1916 1920 1924 1928 1932 1936 1940 
1944 1948 1952 1956 1960 1964 1968 1972 1976 
1980 1984 1988 1992 1996 2000 2004 2008 2012 
2016 2020 2024 2028 2032 2036 2040 2044 2048 
2052 2056 2060 2064 2068 2072 2076 2080 2084 
2088 2092 2096 2100 2104 2108 2112 2116 2120 
2124 2128 2132 2136 2140 2144 2148 2152 2156 
2160 2164 2168 2172 2176 2180 2184 2188 2192 
2196 2200 2204 2208 2212 2216 2220 2224 2228 
2232 2236 2240 2244 2248 2252 2256 2260 2264 
2268 2272 2276 2280 2284 2288 2292 2296 2300 
2304 2308 2312 2316 2320 2324 2328 2332 2336 
2340 2344 2348 2352 2356 2360 2364 2368 2372 
2376 2380 2384 2388 2392 2396 2400 2404 2408 
2412 2416 2420 2424 2428 2432 2436 2440 2444 
2448 2452 2456 2460 2464 2468 2472 2476 2480 
2484 2488 2492 2496 2500 2504 2508 2512 2516 
2520 2524 2528 2532 2536 2540 2544 2548 2552 
2556 2560 2564 2568 2572 2576 2580 2584 2588 
2592 2596 2600 2604 2608 2612 2616 2620 2624 
2628 2632 2636 2640 2644 2648 2652 2656 2660 
2664 2668 2672 2676 2680 2684 2688 2692 2696 
2700 2704 2708 2712 2716 2720 2724 2728 2732 
2736 2740 2744 2748 2752 2756 2760 2764 2768 
2772 2776 2780 2784 2788 2792 2796 2800 2804 
2808 2812 2816 2820 2824 2828 2832 2836 2840 
2844 2848 2852 2856 2860 2864 2868 2872 2876 
2880 2884 2888 2892 2896 2900 2904 2908 2912 
2916 2920 2924 2928 2932 2936 2940 2944 2948 
2952 2956 2960 2964 2968 2972 2976 2980 2984 
2988 2992 2996 3000 3004 3008 3012 3016 3020 
3024 3028 3032 3036 3040 3044 3048 3052 3056 
3060 3064 3068 3072 
CONNECTIVITY vtktypeint64
0 1 6 125 0 6 5 125 31 
26 25 125 31 25 30 125 1 26 
31 125 1 31 6 125 0 25 26 
125 0 26 1 125 0 5 30 125 
0 30 25 125 31 30 5 125 31 
5 6 125 1 2 7 126 1 7 
6 126 32 27 26 126 32 26 31 
126 2 27 32 126 2 32 7 126 
1 26 27 126 1 27 2 126 1 
6 31 126 1 31 26 126 32 31 
6 126 32 6 7 126 2 3 8 
127 2 8 7 127 33 28 27 127 
33 27 32 127 3 28 33 127 3 
33 8 127 2 27 28 127 2 28 
3 127 2 7 32 127 2 32 27 
127 33 32 7 127 33 7 8 127 
3 4 9 128 3 9 8 128 34 
29 28 128 34 28 33 128 4 29 
34 128 4 34 9 128 3 28 29 
128 3 29 4 128 3 8 33 128 
3 33 28 128 34 33 8 128 34 
8 9 128 5 6 11 129 5 11 
10 129 36 31 30 129 36 30 35 
129 6 31 36 129 6 36 11 129 
5 30 31 129 5 31 6 129 5 
10 35 129 5 35 30 129 36 35 
10 129 36 10 11 129 6 7 12 
130 6 12 11 130 37 32 31 130 
37 31 36 130 7 32 37 130 7 
37 12 130 6 31 32 130 6 32 
7 130 6 11 36 130 6 36 31 
130 37 36 11 130 37 11 12 130 
7 8 13 131 7 13 12 131 38 
33 32 131 38 32 37 131 8 33 
38 131 8 38 13 131 7 32 33 
131 7 33 8 131 7 12 37 131 
7 37 32 131 38 37 12 131 38 
12 13 131 8 9 14 132 8 14 
13 132 39 34 33 132 39 33 38 
132 9 34 39 132 9 39 14 132 
8 33 34 132 8 34 9 132 8 
13 38 132 8 38 33 132 39 38 
13 132 39 13 14 132 10 11 16 
133 10 16 15 133 41 36 35 133 
41 35 40 133 11 36 41 133 11 
41 16 133 10 35 36 133 10 36 
11 133 10 15 40 133 10 40 35 
133 41 40 15 133 41 15 16 133 
11 12 17 134 11 17 16 134 42 
37 36 134 42 36 41 134 12 37 
42 134 12 42 17 134 11 36 37 
134 11 37 12 134 11 16 41 134 
11 41 36 134 42 41 16 134 42 
16 17 134 12 13 18 135 12 18 
17 135 43 38 37 135 43 37 42 
135 13 38 43 135 13 43 18 135 
12 37 38 135 12 38 13 135 12 
17 42 135 12 42 37 135 43 42 
17 135 43 17 18 135 13 14 19 
136 13 19 18 136 44 39 38 136 
44 38 43 136 14 39 44 136 14 
44 19 136 13 38 39 136 13 39 
14 136 13 18 43 136 13 43 38 
136 44 43 18 136 44 18 19 136 
15 16 21 137 15 21 20 137 46 
41 40 137 46 40 45 137 16 41 
46 137 16 46 21 137 15 40 41 
137 15 41 16 137 15 20 45 137 
15 45 40 137 46 45 20 137 46 
20 21 137 16 17 22 138 16 22 
21 138 47 42 41 138 47 41 46 
138 17 42 47 138 17 47 22 138 
16 41 42 138 16 42 17 138 16 
21 46 138 16 46 41 138 47 46 
21 138 47 21 22 138 17 18 23 
139 17 23 22 139 48 43 42 139 
48 42 47 139 18 43 48 139 18 
48 23 139 17 42 43 139 17 43 
18 139 17 22 47 139 17 47 42 
139 48 47 22 139 48 22 23 139 
18 19 24 140 18 24 23 140 49 
44 43 140 49 43 48 140 19 44 
49 140 19 49 24 140 18 43 44 
140 18 44 19 140 18 23 48 140 
18 48 43 140 49 48 23 140 49 
23 24 140 25 26 31 141 25 31 
30 141 56 51 50 141 56 50 55 
141 26 51 56 141 26 56 31 141 
25 50 51 141 25 51 26 141 25 
30 55 141 25 55 50 141 56 55 
30 141 56 30 31 141 26 27 32 
142 26 32 31 142 57 52 51 142 
57 51 56 142 27 52 57 142 27 
57 32 142 26 51 52 142 26 52 
27 142 26 31 56 142 26 56 51 
142 57 56 31 142 57 31 32 142 
27 28 33 143 27 33 32 143 58 
53 52 143 58 52 57 143 28 53 
58 143 28 58 33 143 27 52 53 
143 27 53 28 143 27 32 57 143 
27 57 52 143 58 57 32 143 58 
32 33 143 28 29 34 144 28 34 
33 144 59 54 53 144 59 53 58 
144 29 54 59 144 29 59 34 144 
28 53 54 144 28 54 29 144 28 
33 58 144 28 58 53 144 59 58 
33 144 59 33 34 144 30 31 36 
145 30 36 35 145 61 56 55 145 
61 55 60 145 31 56 61 145 31 
61 36 145 30 55 56 145 30 56 
31 145 30 35 60 145 30 60 55 
145 61 60 35 145 61 35 36 145 
31 32 37 146 31 37 36 146 62 
57 56 146 62 56 61 146 32 57 
62 146 32 62 37 146 31 56 57 
146 31 57 32 146 31 36 61 146 
31 61 56 146 62 61 36 146 62 
36 37 146 32 33 38 147 32 38 
37 147 63 58 57 147 63 57 62 
147 33 58 63 147 33 63 38 147 
32 57 58 147 32 58 33 147 32 
37 62 147 32 62 57 147 63 62 
37 147 63 37 38 147 33 34 39 
148 33 39 38 148 64 59 58 148 
64 58 63 148 34 59 64 148 34 
64 39 148 33 58 59 148 33 59 
34 148 33 38 63 148 33 63 58 
148 64 63 38 148 64 38 39 148 
35 36 41 149 35 41 40 149 66 
61 60 149 66 60 65 149 36 61 
66 149 36 66 41 149 35 60 61 
149 35 61 36 149 35 40 65 149 
35 65 60 149 66 65 40 149 66 
40 41 149 36 37 42 150 36 42 
41 150 67 62 61 150 67 61 66 
150 37 62 67 150 37 67 42 150 
36 61 62 150 36 62 37 150 36 
41 66 150 36 66 61 150 67 66 
41 150 67 41 42 150 37 38 43 
151 37 43 42 151 68 63 62 151 
68 62 67 151 38 63 68 151 38 
68 43 151 37 62 63 151 37 63 
38 151 37 42 67 151 37 67 62 
151 68 67 42 151 68 42 43 151 
38 39 44 152 38 44 43 152 69 
64 63 152 69 63 68 152 39 64 
69 152 39 69 44 152 38 63 64 
152 38 64 39 152 38 43 68 152 
38 68 63 152 69 68 43 152 69 
43 44 152 40 41 46 153 40 46 
45 153 71 66 65 153 71 65 70 
153 41 66 71 153 41 71 46 153 
40 65 66 153 40 66 41 153 40 
45 70 153 40 70 65 153 71 70 
45 153 71 45 46 153 41 42 47 
154 41 47 46 154 72 67 66 154 
72 66 71 154 42 67 72 154 42 
72 47 154 41 66 67 154 41 67 
42 154 41 46 71 154 41 71 66 
154 72 71 46 154 72 46 47 154 
42 43 48 155 42 48 47 155 73 
68 67 155 73 67 72 155 43 68 
73 155 43 73 48 155 42 67 68 
155 42 68 43 155 42 47 72 155 
42 72 67 155 73 72 47 155 73 
47 48 155 43 44 49 156 43 49 
48 156 74 69 68 156 74 68 73 
156 44 69 74 156 44 74 49 156 
43 68 69 156 43 69 44 156 43 
48 73 156 43 73 68 156 74 73 
48 156 74 48 49 156 50 51 56 
157 50 56 55 157 81 76 75 157 
81 75 80 157 51 76 81 157 51 
81 56 157 50 75 76 157 50 76 
51 157 50 55 80 157 50 80 75 
157 81 80 55 157 81 55 56 157 
51 52 57 158 51 57 56 158 82 
77 76 158 82 76 81 158 52 77 
82 158 52 82 57 158 51 76 77 
158 51 77 52 158 51 56 81 158 
51 81 76 158 82 81 56 158 82 
56 57 158 52 53 58 159 52 58 
57 159 83 78 77 159 83 77 82 
159 53 78 83 159 53 83 58 159 
52 77 78 159 52 78 53 159 52 
57 82 159 52 82 77 159 83 82 
57 159 83 57 58 159 53 54 59 
160 53 59 58 160 84 79 78 160 
84 78 83 160 54 79 84 160 54 
84 59 160 53 78 79 160 53 79 
54 160 53 58 83 160 53 83 78 
160 84 83 58 160 84 58 59 160 
55 56 61 161 55 61 60 161 86 
81 80 161 86 80 85 161 56 81 
86 161 56 86 61 161 55 80 81 
161 55 81 56 161 55 60 85 161 
55 85 80 161 86 85 60 161 86 
60 61 161 56 57 62 162 56 62 
61 162 87 82 81 162 87 81 86 
162 57 82 87 162 57 87 62 162 
56 81 82 162 56 82 57 162 56 
61 86 162 56 86 81 162 87 86 
61 162 87 61 62 162 57 58 63 
163 57 63 62 163 88 83 82 163 
88 82 87 163 58 83 88 163 58 
88 63 163 57 82 83 163 57 83 
58 163 57 62 87 163 57 87 82 
163 88 87 62 163 88 62 63 163 
58 59 64 164 58 64 63 164 89 
84 83 164 89 83 88 164 59 84 
89 164 59 89 64 164 58 83 84 
164 58 84 59 164 58 63 88 164 
58 88 83 164 89 88 63 164 89 
63 64 164 60 61 66 165 60 66 
65 165 91 86 85 165 91 85 90 
165 61 86 91 165 61 91 66 165 
60 85 86 165 60 86 61 165 60 
65 90 165 60 90 85 165 91 90 
65 165 91 65 66 165 61 62 67 
166 61 67 66 166 92 87 86 166 
92 86 91 166 62 87 92 166 62 
92 67 166 61 86 87 166 61 87 
62 166 61 66 91 166 61 91 86 
166 92 91 66 166 92 66 67 166 
62 63 68 167 62 68 67 167 93 
88 87 167 93 87 92 167 63 88 
93 167 63 93 68 167 62 87 88 
167 62 88 63 167 62 67 92 167 
62 92 87 167 93 92 67 167 93 
67 68 167 63 64 69 168 63 69 
68 168 94 89 88 168 94 88 93 
168 64 89 94 168 64 94 69 168 
63 88 89 168 63 89 64 168 63 
68 93 168 63 93 88 168 94 93 
68 168 94 68 69 168 65 66 71 
169 65 71 70 169 96 91 90 169 
96 90 95 169 66 91 96 169 66 
96 71 169 65 90 91 169 65 91 
66 169 65 70 95 169 65 95 90 
169 96 95 70 169 96 70 71 169 
66 67 72 170 66 72 71 170 97 
92 91 170 97 91 96 170 67 92 
97 170 67 97 72 170 66 91 92 
170 66 92 67 170 66 71 96 170 
66 96 91 170 97 96 71 170 97 
71 72 170 67 68 73 171 67 73 
72 171 98 93 92 171 98 92 97 
171 68 93 98 171 68 98 73 171 
67 92 93 171 67 93 68 171 67 
72 97 171 67 97 92 171 98 97 
72 171 98 72 73 171 68 69 74 
172 68 74 73 172 99 94 93 172 
99 93 98 172 69 94 99 172 69 
99 74 172 68 93 94 172 68 94 
69 172 68 73 98 172 68 98 93 
172 99 98 73 172 99 73 74 172 
75 76 81 173 75 81 80 173 106 
101 100 173 106 100 105 173 76 101 
106 173 76 106 81 173 75 100 101 
173 75 101 76 173 75 80 105 173 
75 105 100 173 106 105 80 173 106 
80 81 173 76 77 82 174 76 82 
81 174 107 102 101 174 107 101 106 
174 77 102 107 174 77 107 82 174 
76 101 102 174 76 102 77 174 76 
81 106 174 76 106 101 174 107 106 
81 174 107 81 82 174 77 78 83 
175 77 83 82 175 108 103 102 175 
108 102 107 175 78 103 108 175 78 
108 83 175 77 102 103 175 77 103 
78 175 77 82 107 175 77 107 102 
175 108 107 82 175 108 82 83 175 
78 79 84 176 78 84 83 176 109 
104 103 176 109 103 108 176 79 104 
109 176 79 109 84 176 78 103 104 
176 78 104 79 176 78 83 108 176 
78 108 103 176 109 108 83 176 109 
83 84 176 80 81 86 177 80 86 
85 177 111 106 105 177 111 105 110 
177 81 106 111 177 81 111 86 177 
80 105 106 177 80 106 81 177 80 
85 110 177 80 110 105 177 111 110 
85 177 111 85 86 177 81 82 87 
178 81 87 86 178 112 107 106 178 
112 106 111 178 82 107 112 178 82 
112 87 178 81 106 107 178 81 107 
82 178 81 86 111 178 81 111 106 
178 112 111 86 178 112 86 87 178 
82 83 88 179 82 88 87 179 113 
108 107 179 113 107 112 179 83 108 
113 179 83 113 88 179 82 107 108 
179 82 108 83 179 82 87 112 179 
82 112 107 179 113 112 87 179 113 
87 88 179 83 84 89 180 83 89 
88 180 114 109 108 180 114 108 113 
180 84 109 114 180 84 114 89 180 
83 108 109 180 83 109 84 180 83 
88 113 180 83 113 108 180 114 113 
88 180 114 88 89 180 85 86 91 
181 85 91 90 181 116 111 110 181 
116 110 115 181 86 111 116 181 86 
116 91 181 85 110 111 181 85 111 
86 181 85 90 115 181 85 115 110 
181 116 115 90 181 116 90 91 181 
86 87 92 182 86 92 91 182 117 
112 111 182 117 111 116 182 87 112 
117 182 87 117 92 182 86 111 112 
182 86 112 87 182 86 91 116 182 
86 116 111 182 117 116 91 182 117 
91 92 182 87 88 93 183 87 93 
92 183 118 113 112 183 118 112 117 
183 88 113 118 183 88 118 93 183 
87 112 113 183 87 113 88 183 87 
92 117 183 87 117 112 183 118 117 
92 183 118 92 93 183 88 89 94 
184 88 94 93 184 119 114 113 184 
119 113 118 184 89 114 119 184 89 
119 94 184 88 113 114 184 88 114 
89 184 88 93 118 184 88 118 113 
184 119 118 93 184 119 93 94 184 
90 91 96 185 90 96 95 185 121 
116 115 185 121 115 120 185 91 116 
121 185 91 121 96 185 90 115 116 
185 90 116 91 185 90 95 120 185 
90 120 115 185 121 120 95 185 121 
95 96 185 91 92 97 186 91 97 
96 186 122 117 116 186 122 116 121 
186 92 117 122 186 92 122 97 186 
91 116 117 186 91 117 92 186 91 
96 121 186 91 121 116 186 122 121 
96 186 122 96 97 186 92 93 98 
187 92 98 97 187 123 118 117 187 
123 117 122 187 93 118 123 187 93 
123 98 187 92 117 118 187 92 118 
93 187 92 97 122 187 92 122 117 
187 123 122 97 187 123 97 98 187 
93 94 99 188 93 99 98 188 124 
119 118 188 124 118 123 188 94 119 
124 188 94 124 99 188 93 118 119 
188 93 119 94 188 93 98 123 188 
93 123 118 188 124 123 98 188 124 
98 99 188 
CELL_TYPES 768
10
10
10
10
10
10
10
10
10
10
10
10
10
10
10
10
10
10
10
10
10
10
10
10
10
10
10
10
10
10
10
10
10
10
10
10
10
10
10
10
10
10
10
10
10
10
10
10
10
10
10
10
10
10
10
10
10
10
10
10
10
10
10
10
10
10
10
10
10
10
10
10
10
10
10
10
10
10
10
10
10
10
10
10
10
10
10
10
10
10
10
10
10
10
10
10
10
10
10
10
10
10
10
10
10
10
10
10
10
10
10
10
10
10
10
10
10
10
10
10
10
10
10
10
10
10
10
10
10
10
10
10
10
10
10
10
10
10
10
10
10
10
10
10
10
10
10
10
10
10
10
10
10
10
10
10
10
10
10
10
10
10
10
10
10
10
10
10
10
10
10
10
10
10
10
10
10
10
10
10
10
10
10
10
10
10
10
10
10
10
10
10
10
10
10
10
10
10
10
10
10
10
10
10
10
10
10
10
10
10
10
10
10
10
10
10
10
10
10
10
10
10
10
10
10
10
10
10
10
10
10
10
10
10
10
10
10
10
10
10
10
10
10
10
10
10
10
10
10
10
10
10
10
10
10
10
10
10
10
10
10
10
10
10
10
10
10
10
10
10
10
10
10
10
10
10
10
10
10
10
10
10
10
10
10
10
10
10
10
10
10
10
10
10
10
10
10
10
10
10
10
10
10
10
10
10
10
10
10
10
10
10
10
10
10
10
10
10
10
10
10
10
10
10
10
10
10
10
10
10
10
10
10
10
10
10
10
10
10
10
10
10
10
10
10
10
10
10
10
10
10
10
10
10
10
10
10
10
10
10
10
10
10
10
10
10
10
10
10
10
10
10
10
10
10
10
10
10
10
10
10
10
10
10
10
10
10
10
10
10
10
10
10
10
10
10
10
10
10
10
10
10
10
10
10
10
10
10
10
10
10
10
10
10
10
10
10
10
10
10
10
10
10
10
10
10
10
10
10
10
10
10
10
10
10
10
10
10
10
10
10
10
10
10
10
10
10
10
10
10
10
10
10
10
10
10
10
10
10
10
10
10
10
10
10
10
10
10
10
10
10
10
10
10
10
10
10
10
10
10
10
10
10
10
10
10
10
10
10
10
10
10
10
10
10
10
10
10
10
10
10
10
10
10
10
10
10
10
10
10
10
10
10
10
10
10
10
10
10
10
10
10
10
10
10
10
10
10
10
10
10
10
10
10
10
10
10
10
10
10
10
10
10
10
10
10
10
10
10
10
10
10
10
10
10
10
10
10
10
10
10
10
10
10
10
10
10
10
10
10
10
10
10
10
10
10
10
10
10
10
10
10
10
10
10
10
10
10
10
10
10
10
10
10
10
10
10
10
10
10
10
10
10
10
10
10
10
10
10
10
10
10
10
10
10
10
10
10
10
10
10
10
10
10
10
10
10
10
10
10
10
10
10
10
10
10
10
10
10
10
10
10
10
10
10
10
10
10
10
10
10
10
10
10
10
10
10
10
10
10
10
10
10
10
10
10
10
10
10
10
10
10
10
10
10
10
10
10
10
10
10
10
10
10
10
10
10
10
10
10
10
10
10
10
10
10
10
10
10
10
10
10
10
10
10
10
10
10
10
10
10
10
10
10
10
10
10
10
10
10
10
10
10
10
10
10
10
10
10
10
10
10
10
10
10
10
10
10
10
10
10
10
10
10
10
10
10
10
10
10
10
10
10
10
10
10
10
10
10
10
10
10
10
10
10
10
10
10

POINT_DATA 189
FIELD FieldData 2
DistanceToCenter 1 189 float
3.4641 3 2.82843 3 3.4641 3 2.44949 2.23607 2.44949 
3 2.82843 2.23607 2 2.23607 2.82843 3 2.44949 2.23607 
2.44949 3 3.4641 3 2.82843 3 3.4641 3 2.44949 
2.23607 2.44949 3 2.44949 1.73205 1.41421 1.73205 2.44949 2.23607 
1.41421 1 1.41421 2.23607 2.44949 1.73205 1.41421 1.73205 2.44949 
3 2.44949 2.23607 2.44949 3 2.82843 2.23607 2 2.23607 
2.82843 2.23607 1.41421 1 1.41421 2.23607 2 1 0 
1 2 2.23607 1.41421 1 1.41421 2.23607 2.82843 2.23607 
2 2.23607 2.82843 3 2.44949 2.23607 2.44949 3 2.44949 
1.73205 1.41421 1.73205 2.44949 2.23607 1.41421 1 1.41421 2.23607 
2.44949 1.73205 1.41421 1.73205 2.44949 3 2.44949 2.23607 2.44949 
3 3.4641 3 2.82843 3 3.4641 3 2.44949 2.23607 
2.44949 3 2.82843 2.23607 2 2.23607 2.82843 3 2.44949 
2.23607 2.44949 3 3.4641 3 2.82843 3 3.4641 2.59808 
2.17945 2.17945 2.59808 2.17945 1.65831 1.65831 2.17945 2.17945 1.65831 
1.65831 2.17945 2.59808 2.17945 2.17945 2.59808 2.17945 1.65831 1.65831 
2.17945 1.65831 0.866025 0.866025 1.65831 1.65831 0.866025 0.866025 1.65831 
2.17945 1.65831 1.65831 2.17945 2.17945 1.65831 1.65831 2.17945 1.65831 
0.866025 0.866025 1.65831 1.65831 0.866025 0.866025 1.65831 2.17945 1.65831 
1.65831 2.17945 2.59808 2.17945 2.17945 2.59808 2.17945 1.65831 1.65831 
2.17945 2.17945 1.65831 1.65831 2.17945 2.59808 2.17945 2.17945 2.59808 

Polynomial 1 189 float
1 2 3 4 5 2 3 4 5 
6 3 4 5 6 7 4 5 6 
7 8 5 6 7 8 9 2 3 
4 5 6 3 4 5 6 7 4 
5 6 7 8 5 6 7 8 9 
6 7 8 9 10 3 4 5 6 
7 4 5 6 7 8 5 6 7 
8 9 6 7 8 9 10 7 8 
9 10 11 4 5 6 7 8 5 
6 7 8 9 6 7 8 9 10 
7 8 9 10 11 8 9 10 11 
12 5 6 7 8 9 6 7 8 
9 10 7 8 9 10 11 8 9 
10 11 12 9 10 11 12 13 1 
2 3 4 2 3 4 5 3 4 
5 6 4 5 6 7 2 3 4 
5 3 4 5 6 4 5 6 7 
5 6 7 8 3 4 5 6 4 
5 6 7 5 6 7 8 6 7 
8 9 4 5 6 7 5 6 7 
8 6 7 8 9 7 8 9 10 

