# vtk DataFile Version 5.1
vtk output
ASCII
DATASET UNSTRUCTURED_GRID
POINTS 1783 double
0 0.00015307979098 0.49074773788 0 0 1.4722431183 0 1 0.49074773788 
0.00017916987225 1 1.4723465621 0.30030720234 0 0.99987373352 0.30030720234 1 0.96311721802 
0.30276226997 0 0.92644281387 0.30276226997 1 1.0365480423 0.3076613903 0 1.0729765892 
0.3076613903 1 0.89001436234 0.31451121579 0 0.85679000304 0.31434622782 1 1.1052227334 
0.32469370365 0 1.1444469452 0.32469370365 1 0.81854391098 0.33684448872 0 0.77908595194 
0.33675069809 1 1.1791696548 0.35445638453 0 1.2191341096 0.35110003948 1 0.74998130798 
0.36767759323 0 0.7171754837 0.36767759323 1 1.2458153725 0.38640928268 0 1.277440834 
0.38640928268 1 0.68555011749 0.40118219852 0.1 1.0057850361 0.40118219852 0.9 0.95720582008 
0.40206885338 0.1 0.94217000008 0.4036382862 0.9 1.0347094413 0.40626840591 0.1 1.0563436508 
0.40626840591 0.9 0.90664720535 0.40721154213 0 0.65524659157 0.40721154213 1 1.3077443123 
0.41112125912 0.1 0.8839191129 1.2100836944 0.14347762849 0.20789442172 0.95943652508 1 0.24081985055 
0.41426366957 0.9 1.0922781204 0.42020392418 0.1 1.1148194313 0.42020392418 0.9 0.84817142487 
0.43461765601 0.0015777740679 1.3391098609 0.42999134064 1 0.62640008926 0.43006877899 0.1 0.81976194382 
0.43067047596 0.9 1.144525528 1.5704368193 0.23640029645 0.56383399387 1.5719866997 0.42543574883 0.52973230346 
0.44180912971 0.1 1.1709160805 0.44180912971 0.9 0.7920747757 0.4514355767 0.1 0.77371767098 
0.45464701653 0 0.59913959503 0.45464701653 1 1.3638513565 0.45806581974 0.9 1.2019761562 
0.46588523388 0.1 1.2148493767 0.46588523388 0.9 0.74814152718 0.48106842041 0 1.3894041061 
0.48106842041 1 0.57358675003 0.48194465607 0.1 0.72360917553 0.49326043129 0.9 1.2549812794 
1.5679001532 0.41471004949 0.76063616936 0.50253858566 0.1 1.2668462276 0.50253858566 0.9 0.69614467621 
0.50913763046 0 0.54985580444 0.50913763046 1 1.4131350517 0.52652935982 0.1 0.66865887642 
0.52652935982 0.9 1.2943320274 0.53872914314 0 1.4349382401 0.53872914314 1 0.52805256844 
0.54417123795 0.1 1.3111280441 0.54417123795 0.9 0.65186285973 0.14275538574 0.80857411567 1.0519187705 
0.76636468436 0.88240484503 1.7911645158 0.56971087456 0 0.50827455521 0.56971087456 1 1.4547163963 
0.57330952102 0.1 0.62682759037 0.57111263275 0.9 1.3346551895 0.59593875408 0.1 1.352858305 
0.59593875408 0.9 0.61013257504 0.60194449425 0 1.4723807335 0.60194449425 1 0.490610075 
0.62067255974 0.1 0.59431476593 0.62067255974 0.9 1.3686760902 0.63528594971 0 0.47513799667 
0.63528594971 1 1.4878528595 0.65099499226 0.1 1.3848036289 0.65099499226 0.9 0.57818725109 
0.66474671364 0.1 0.57204301357 0.66474671364 0.9 1.3909478188 0.66958637238 0 1.5010634422 
0.66958637238 1 0.46192741394 0.7023888588 0.1 1.4065964699 0.71195874373 0 0.44956045104 
0.70391748056 1 1.511684298 0.70997717381 0.9 0.55431571007 0.72435574532 0.1 0.54983036518 
0.72435574532 0.9 1.4131604671 0.74044771194 0 1.5204744339 0.739552435 0.99977075839 0.44299886797 
0.76036634445 0.1 1.4224782944 0.76036634445 0.9 0.54051265717 0.77669219971 0 0.4364027977 
0.77669219971 1 1.5265880585 0.78651793003 0.1 0.5362225771 0.78651793003 0.9 1.4267683029 
0.81326408386 0 1.5302672386 0.81326408386 1 0.43272366524 0.81994333267 0.9 0.5325003624 
0.83497166634 0.1 1.4309929371 0.85 0 0 0.85390185597 0 0.43175662573 
0.85 0 1.9629909515 0.85 0.1 0.53149547577 0.85 0.9 1.4314953804 
0.85 1 0 0.85 1 1.5314954758 0.85 1 1.9629909515 
0.86836800575 0 1.5308813572 0.88005666733 0.1 1.4304904938 0.88005666733 0.9 0.5325003624 
0.88562424954 1 0.43272366524 0.91348214149 0.1 0.5362225771 0.91348214149 0.9 1.4267683029 
1.5737210281 0.81348704166 0.54887823026 0.92330789566 0 0.4364027977 0.92330789566 1 1.5265880585 
0.92828822136 0.1 1.4240040779 0.93963365555 0.9 0.54051265717 0.95536762542 0 1.5210372265 
0.95873213854 1 0.44240615825 0.96888790131 0.9 1.4155065536 0.97564430237 0.1 0.54983036518 
0.99002289772 0.9 0.55431571007 0.99738326222 0 0.45175812936 0.99530754089 1 1.5119534492 
0.99761123657 0.1 1.4065964699 1.0256752014 0.1 0.56720294952 1.0256752014 0.9 1.3957878113 
1.030413723 0 1.5010634422 1.030413723 1 0.46192741394 1.3681785774 0.71782812385 1.317903931 
1.0490050793 0.1 1.3848036289 1.0529545784 0.9 0.57986197472 1.0647141457 0 0.47513799667 
1.0591141358 1 1.4903234846 1.0793274879 0.1 0.59431476593 1.0793274879 0.9 1.3686760902 
1.0980555534 0 1.4723807335 1.0980555534 1 0.490610075 0.76304565911 0.85947426153 1.6460157996 
0.12955186263 0.87905676035 1.2209509084 1.1034464836 0.9 0.60976839066 1.1011343748 0.1 1.3545919325 
0.12304613505 0.84567675788 1.408595509 1.1288874626 0.1 0.62833566666 1.1288874626 0.9 1.3346551895 
1.1341214893 0 0.51090529375 1.1304591862 0.9991881282 1.4536171327 0.5363442966 0.83802692255 1.6067406883 
0.18950171826 0.18501809127 0.84611321531 0.76625853547 0.13345372745 0.29271112382 1.1558288574 0.1 1.3111280441 
1.1558288574 0.9 0.65186285973 1.1632860542 0.0010270995007 1.4320411511 1.1612709999 1 0.52805256844 
1.1734706879 0.1 0.66865887642 1.1734706879 0.9 1.2943320274 1.1908624649 0 0.54985580444 
1.1908624649 1 1.4131350517 1.2534611444 0.15885102601 1.5331371412 1.1974615097 0.1 1.2668462276 
1.1871166431 0.13814611241 0.33863793985 0.15158892656 0.63852781877 1.4495644596 1.2012794495 0.9 0.70132641792 
1.2122815132 0.1 0.71456456184 1.2082636836 0.9 1.2531786585 1.218931675 0 1.3894041061 
1.218931675 1 0.57358675003 1.2341148853 0.1 1.2148493767 1.2341148853 0.9 0.74814152718 
0.18185173863 0.19596255418 1.4732244312 1.2419342518 0.1 0.76101472378 1.2446274757 0.9 1.1977572441 
1.2451187367 0 0.59892760236 1.2453531265 1 1.3638513565 1.2626837571 0.099213860907 1.1614331635 
1.258190918 0.9 0.7920747757 1.2687278748 0.9 1.1458221436 1.2699313164 0.1 0.81976194382 
1.2700087547 0 1.3365907669 1.2700087547 1 0.62640008926 1.2797961235 0.1 1.1148194313 
1.2797961235 0.9 0.84817142487 0.28290190963 0.12860220768 0.6113992513 0.9808164207 1 1.7459578441 
1.2880980968 0.1 0.87929086685 1.2884548187 0.9 1.0815855026 1.2927886009 0 0.65524659157 
1.2927886009 1 1.3077443123 1.2920999259 0.1 1.0631908189 1.2937316895 0.9 0.90664720535 
1.297931242 0.1 0.94217000008 1.297931242 0.9 1.0208208561 1.2988179207 0.1 1.0057850361 
1.2997488022 0.9 0.96645870209 1.3135908127 0 1.277440834 1.3135908127 1 0.68555011749 
1.3334017798 0 0.71561984632 1.3323225021 1 1.2458153725 1.348900032 0 1.2130095482 
1.3519461532 1 0.75789038027 1.3632493973 0 0.78382120132 1.3632493973 1 1.1791696548 
1.3753064156 0 1.1444469452 1.3753064156 1 0.81854391098 1.3850172997 0 0.85399427414 
1.3850172997 1 1.108996582 1.3923386574 0 1.0729765892 1.3923386574 1 0.89001436234 
1.3972378731 0 0.92644281387 1.3972378731 1 1.0365480423 1.3996929169 0 0.99987373352 
1.3996929169 1 0.96311721802 1.7 0 0.49074773788 1.7 -3.469446952e-16 1.4722431183 
1.6999662854 1 0.49072827272 1.7 1 1.4722431183 0.5563552461 0.54102033906 1.7934550377 
0.088215040279 0.07779595574 0.98295676124 0.076902435996 0.076604408487 1.1848153815 0.0707238386 0.071034545201 1.3545312702 
0.10807197168 0.28525541942 0.63036499097 0.1038611174 0.27327572453 0.80962241098 0.098878846507 0.29028952476 1.1844770993 
0.092052269852 0.31366623063 1.3397290298 0.093456589489 0.49522504228 0.6034857747 0.10411793437 0.50606193506 0.76970723914 
0.096776094337 0.50904665858 0.98711567848 0.089870281973 0.52387512685 1.1924630608 0.095990094166 0.49458784936 1.3639183854 
0.40520238593 0.88550228842 0.36223667296 0.10625120354 0.73374929008 0.57928175864 1.5728083377 0.78727386734 1.2768464697 
0.098058975814 0.70070622907 1.1509351023 0.11517353127 0.72389986501 1.3362832765 1.5652915574 0.21205369858 0.88697457646 
0.87745107256 0.38420244718 1.6498271437 1.5534116624 0.37900119354 0.92118242932 0.079101938777 0.9130078826 1.0139610696 
0.14643165264 0.6876998883 0.94680706937 1.5784375056 0.38637666233 1.2493871166 1.5762071126 0.60289279969 1.2648623593 
0.2672243158 0.095833474344 0.42938610824 1.5411420162 0.18817335845 0.7198155579 0.25305326456 0.29095658063 0.4571715927 
0.24536802752 0.27572599185 0.60974994356 0.25639205297 0.28236383649 0.75640443224 0.29338659344 0.28691927176 0.97385063466 
0.25138920988 0.29880156965 1.1452813331 0.2630413287 0.28352052755 1.3735671992 1.5728969682 0.59817292984 0.52122130146 
0.25192294483 0.52144949203 0.46117137864 0.25545707787 0.51095211013 0.61960573274 0.30290917369 0.47414980786 0.84453546714 
0.28967746019 0.49942734179 0.96799056169 0.28606206969 0.52854520791 1.1850059152 0.26338177113 0.52129566812 1.3575549831 
0.30263791638 0.51732073686 1.5374038785 0.28847478741 0.70241530902 0.4428652022 0.24919151319 0.69662244838 0.59926830829 
0.24205301939 0.73752145859 0.98060597021 0.23620033822 0.7274489875 1.1834739763 0.25810565034 0.70720130985 1.3584587087 
1.5590347767 0.19706432242 1.0787396348 0.26194651299 0.90044083127 0.44384732026 0.26155478616 0.8727202168 0.83780395441 
0.26817046901 0.88354729635 0.98436137614 1.5714779014 0.38884573632 1.0802220001 0.17187909704 0.43756379755 1.0986830586 
0.44302476571 0.11059578742 0.40045591384 0.43184311618 0.12928060281 0.59544293433 0.2090483619 0.67985507326 0.75400509873 
0.4579570639 0.10323871437 1.3783820437 0.47086476343 0.29652870872 0.38194283413 0.45954292218 0.27563838646 0.59444283712 
0.44549032459 0.29716311331 1.349605553 0.48361249885 0.27636102181 1.5391490838 0.45437214184 0.49759570122 0.39484105012 
0.46902944914 0.47639970638 0.6037571508 0.4520258912 0.48961525818 1.3512413562 0.44363834867 0.50551411897 1.5521894084 
0.44119034131 0.67651726495 0.40073992497 1.1831293593 0.67146023801 0.53862645686 0.45567246867 0.69923582408 1.3651754548 
0.48207877939 0.70930850651 1.5311945546 1.4235722749 0.60645226422 1.1040481126 0.4163594593 0.90036294253 0.6098945586 
0.44999684892 0.89641873774 1.3896626221 1.0532979541 0.61815483383 0.34587027685 0.68293160382 0.095172499842 0.40912915724 
[...]
CELL_DATA 7155
FIELD FieldData 1
color 1 7155 double
3.9956577759 3.7522575291 3.2782389091 3.3627518461 3.8055140605 3.7545273976 3.3448502364 3.3536378476 3.8401088571 
3.6357812928 4.6888593067 5.1211257127 3.2465827677 3.6815603724 4.7858366238 3.4860747671 3.456808263 3.5065201962 
4.6119518877 3.4618681812 3.3790665936 3.3009608456 3.3223906234 3.3640301379 3.4467057606 3.2727189334 3.3563495707 
3.2124482207 3.5799358526 3.5187269472 3.6593070448 3.4308535211 3.2250462993 3.6609720884 3.4457110806 3.725697321 
3.4746278314 3.3617389578 3.5715905665 3.5172682786 3.6285524734 3.4129712864 3.4233678601 4.0920181703 3.5924286639 
3.0044541827 3.5579780922 3.5638391655 3.6316854481 3.2722128033 3.21994623 3.9227156209 4.6175304068 3.6636937614 
3.7010711778 3.3049651884 3.4428104533 4.1941242996 3.3030134442 3.2391386151 3.3455321355 3.2397074965 3.9270912789 
4.0092478225 3.707134002 3.6635432573 3.6980229708 3.8233926085 3.4938690123 3.2382219655 3.8372791455 3.3003141531 
3.5975033913 3.8337369436 3.2968128614 3.6803984697 3.9650987319 4.4385157139 5.6084666981 4.8030128476 4.0172603073 
3.912563004 3.5017131823 4.2787187054 3.73046993 3.9272350128 3.7504832176 3.3780696316 3.5069344263 4.8732022856 
3.2022381561 3.4207569709 3.1805745288 4.32408835 3.4411688918 3.804840261 3.941899268 3.6207700061 3.5180215416 
3.9286040303 3.6038805228 3.716022942 3.3928378804 4.0319451333 3.2389740255 3.0484972607 3.4333515568 3.5832655917 
3.4111925931 3.9023878623 3.2282186099 3.4933027413 3.3607509732 3.397477957 3.2692734987 3.8043254563 3.3472057938 
3.5756903966 3.1847613501 3.4680534513 3.454602471 3.6115174173 3.1369270415 3.0577445366 3.6817036286 3.1863474669 
3.1031140663 4.0390092749 3.5899848114 3.7464278256 3.4327939093 3.1511318018 3.4430536874 3.4768925596 3.8362317949 
3.646621715 4.0938229646 3.884559678 3.7518105535 3.2511336055 3.286887145 3.25975392 4.0153581683 3.4388509388 
3.4764585301 3.7539695032 3.3955211698 3.257612086 3.2543996111 3.133102253 3.3663636828 3.7925636876 3.577782901 
3.2809429658 3.3623432353 3.3948546405 3.3060820877 3.4326441456 3.7200100218 3.8295728564 3.0805637878 3.4628355709 
3.2079460655 3.1498339059 4.3307176068 4.0543879918 3.4661929971 3.3471557538 3.9157387306 3.6758402952 3.9402733864 
3.9992111659 3.2792163792 3.6045092846 3.339532644 3.9665459431 3.7281847166 3.2683352522 3.1371049006 3.2670747782 
3.9544814408 4.3913534244 3.3245274149 3.8006929805 3.6249968124 3.335218775 3.2146616636 3.9199870061 3.679749805 
3.4351749883 3.8852506906 3.1533192684 3.1738956148 3.5172554426 3.1903794276 3.7757797272 3.5469025027 4.4869499996 
3.7696496935 4.7431570575 3.2686079636 3.2722741152 3.5330645335 3.3849525075 4.076423226 3.6510052049 4.0080484736 
3.159750491 3.7642871126 3.5349736476 3.0818643375 4.24756053 3.8612797539 3.9998670793 4.0224912602 3.3388091263 
3.7177282571 3.3362674869 3.7184162797 3.5241453595 3.4267297196 3.2082942962 3.2872978249 3.5069901499 3.0896225093 
3.4887204499 3.10077022 3.3951052835 3.5588579164 3.407539848 3.2531729073 4.1818278086 3.8796294106 3.3546476678 
3.3490728852 3.3627828572 3.7589817942 3.6167122366 3.9548320144 3.4989483598 3.1722395376 3.5440696662 3.3080851927 
3.4256673814 3.6403195316 4.0564572983 3.4467925684 3.3707197883 3.999535864 3.4114659051 3.8465539551 3.4007937135 
3.5769281419 3.879462848 3.9227264774 3.2026413172 3.685395998 3.3184964414 3.3671309709 3.4535399462 3.1811274406 
3.5143462176 4.490428151 3.4172202531 3.7586770085 3.5588428115 3.2124507481 3.3699367252 4.7063115713 4.0662806424 
4.3331724173 3.8997904256 3.7940452876 3.3122307518 4.1739220755 3.7485936386 3.8246703754 3.7919527257 3.7075800857 
3.5968920102 3.3539406442 3.422682458 3.4072206034 3.2232847179 3.1323553734 4.5447129903 3.5178289384 3.4233636541 
3.3369794597 3.3238262492 3.7090666961 3.7640999131 4.2439121491 4.1279896743 3.915299927 3.9892700939 3.3010865954 
3.2781023483 3.7160783706 4.4619002178 3.4558778055 3.3706365083 3.7438807602 3.4495763691 4.2410281636 3.584171139 
3.8057389862 3.274112847 3.2019790727 3.7394897727 3.1530592689 3.4717393109 3.3901622507 4.3480090086 3.3732966163 
3.2043108927 3.4508237628 4.0570025308 3.0728298485 3.3062133434 3.4545168688 3.5518457166 3.3282739721 3.4967567954 
3.5462542237 3.719488915 3.1698675933 3.4876136778 3.4066243332 3.8325431333 3.573524218 3.3009103628 3.4113090647 
3.239793985 3.6082916767 3.3040064894 3.4591458384 4.0486732913 3.7773768173 3.56662489 3.6511156018 3.5252488606 
3.5898070737 3.8016121826 4.4200641686 3.2687859426 4.1907300386 3.4211740308 4.209013982 3.6911999389 3.3633856407 
3.8164876202 3.2342436418 3.5296784747 3.1924224706 3.4729823748 3.3172381741 4.4623384757 3.6427972847 3.187880909 
4.2364166571 4.0822136699 3.5788588423 3.1874642723 3.5799201947 3.7229768619 3.194329794 3.8865549287 3.5132571978 
3.4788787844 3.3045063644 4.1250672466 3.6275105855 3.2112328651 3.434643855 3.7897853572 3.6180031779 3.4698545042 
3.5135269487 3.8537771465 3.1842502919 4.4132194238 3.8182426086 3.742098404 3.6425933955 4.2425290208 5.0194782809 
4.4582209268 3.7515235612 4.0727746572 3.5367313075 3.1943235912 3.6357017377 3.0285991505 3.484518683 3.4894880675 
3.9478102545 3.7142394975 3.3667810347 3.422011278 3.5435028806 3.2220564288 3.9624410862 3.7705655303 3.2339372397 
3.601704489 3.2191190381 3.3807413735 3.591635002 3.1229653743 4.3862063179 3.706141679 4.2107841951 3.3108303186 
3.5845255224 4.5473539053 3.7077609668 3.7479792256 3.4397825286 4.4398771723 3.6878002055 3.4610935809 3.6320501429 
3.676878731 3.5959380213 3.8586346441 3.2923935901 3.7433631005 3.8260686987 3.4770515827 3.9964992637 4.5388918062 
3.8830132183 3.6570801949 3.0277646878 3.2263150356 3.7555859592 3.9001699943 3.1680104087 3.1960440188 3.2020988046 
3.6722927219 3.1883870069 3.3997079048 3.1744510047 3.4377150615 3.28411939 3.2538718357 3.5125514408 3.3292882358 
4.1309151567 3.1618892998 3.7817725454 3.5045613066 3.2307259176 3.09989413 3.2999748303 3.5580122069 3.1648882701 
3.6671991798 3.5886561368 3.3457959404 3.7211715712 3.1754669407 3.6473615202 3.4137197667 3.8447713566 3.3289623844 
3.3679151888 3.3134469542 3.5442261193 3.6819252197 3.0905503916 3.6905659473 3.3251829391 4.079788245 4.4299677358 
3.42499728 3.4337129133 3.2526122353 3.2530782404 3.3635260404 3.407815789 4.2787722807 3.0888430348 3.2962395978 
3.78149941 3.1645213899 3.2116005575 3.4890401019 3.9186515365 3.5200616769 3.184215992 3.3251530748 3.196862043 
4.009295703 3.6374959531 5.131537786 4.0250642156 4.9272449844 3.290874207 3.2948941829 3.4303964103 3.7065467646 
3.3466283919 3.1101478446 3.6172961992 3.706958635 3.3799862746 3.7005189615 3.0977434992 3.1664934827 3.1667405356 
3.1247837727 3.4973383169 3.3811155654 3.3266050819 3.2916571121 3.9340862997 3.6010165936 3.2948862001 3.3442158574 
5.136368982 3.6805494701 3.7749362947 3.7484010545 3.1179142235 3.2935989769 3.5506005856 3.3161952946 3.0420827942 
3.3704880919 3.7000934189 4.4587309977 4.8968960596 4.0026996172 4.1112652643 3.2703388858 3.4125799897 3.7900956439 
3.4905539265 4.3394639048 4.5901548351 3.6339976071 3.6093935737 3.307604343 3.3430938137 3.6051697256 3.1167388103 
4.3452551112 3.7724253165 3.6928012953 3.4904034392 3.5392509729 4.3141296133 3.3671307275 4.080297758 3.6144849629 
3.2838540903 4.6962704739 4.334580867 3.5757051011 3.8624768737 3.3131534552 3.2875883227 3.480981753 3.9006894636 
3.5188321004 3.3515865408 3.9256922791 3.4436149072 4.1474792365 3.1273611074 3.7247662091 3.5583363294 3.2568795257 
3.4453512662 3.7215067442 4.4990237111 3.6287842013 3.472433763 3.6902597771 3.9772921177 3.2205658554 3.7272783311 
3.1802658861 3.29755488 4.9795193266 3.9439416828 3.6626455283 4.3983385097 3.765514615 3.3211509257 3.5928625017 
3.0768592196 3.2964795441 3.7948625232 3.1220326422 4.3294365946 3.6342697507 3.7146722234 3.2604692094 4.1922800747 
3.1701145476 3.5595218483 3.2159113753 4.3153778593 3.9257170467 3.7058357991 3.4915097275 3.4696463861 3.3213053053 
3.2407505913 3.8490231524 3.4697477636 3.6665782388 3.4279988462 3.596068892 3.8274475346 3.9535751947 3.4787022335 
3.3924365158 3.7928507343 3.6336854812 3.6063872373 3.2527179823 3.4050188966 3.1450402389 3.6867350247 3.5009445251 
4.009102085 4.4598852628 3.8064358107 3.4108649702 3.6190462617 3.4673363968 3.4229049707 3.522393093 3.362499332 
3.1983871425 3.1267634257 3.7472672438 4.383672799 3.0689702407 4.2652054986 3.8904589192 3.5896043436 3.5750040227 
3.669707896 3.6464349377 3.4025477432 3.4362974775 3.5619294612 3.4019457982 3.6135721755 3.5331789818 3.6197546423 
3.334152915 3.5877318809 4.140412668 3.4983380086 3.3303765262 3.731948783 3.390028237 3.6521730521 3.5736636623 
4.3067646262 3.1510021306 3.1335802542 4.0344967979 5.0142750997 3.451245989 3.3073527518 3.1428585548 4.7341796792 
4.5167218233 3.0506665418 3.4849859962 3.0755770154 3.9994658961 3.3005452088 3.1445606944 3.7726907963 4.1817958493 
3.6417294507 3.335479149 3.3593183342 4.6482326893 3.2587185641 3.11467245 3.7613177642 3.3303694422 3.3676988715 
3.7972005606 4.21505359 3.7875699218 3.3782772136 3.6496587319 3.3977915123 3.4056638914 3.6278971928 4.745456452 
3.8877196027 3.1776378022 3.5063592224 4.4559505957 4.007516924 3.9764841305 3.5950215026 3.748999971 3.3315596906 
4.3570679835 3.5183913205 3.4482474203 3.3539249207 3.1507857699 3.6838350352 3.5644099545 3.7159753928 3.6171993264 
3.8277344231 3.6774661342 3.9648633344 3.5574611246 3.660025364 4.1059526772 3.9746621458 3.256664807 3.6523248993 
3.6126395851 3.1348732604 3.5772110237 3.2809784155 4.2290693173 3.4426820207 3.8062268956 3.7771066142 3.6891391041 
3.442794323 3.3916611113 4.5502587845 3.913769823 4.0627103485 3.5585707695 3.5357395449 3.6057843471 3.5827086055 
4.2983552023 3.5286859586 3.3372137231 3.4656508931 4.3613704247 3.3850945056 3.4081791251 3.540752541 3.7708033943 
3.3589805386 3.766161476 4.0586379018 3.9389957988 3.4851309619 3.2263484333 3.8667382977 3.9171748118 3.5554407424 
3.3626785615 4.2503125058 4.4083687349 4.1946353872 3.4008974073 3.9223331921 3.4469164033 4.0564956877 4.3625760225 
3.1000012788 3.5514730625 4.5825653493 3.5488949118 3.4636795198 3.5052241492 3.1988602613 3.4583867292 3.6702409393 
3.3001490212 3.7443411188 3.1193408084 3.2380139802 3.5505401739 3.5943234718 3.1827708475 4.0875660834 4.6079478688 
4.7554812749 4.282335046 3.263317109 4.7389267979 3.4750942795 3.7953258237 3.0677229586 3.7247056875 3.8252475638 
3.9810695784 3.5525366037 3.4020233667 3.7263261965 3.8492790772 3.8865250898 3.0301685814 3.7360630184 3.7464346822 
3.3252490426 3.3771306092 3.2352000927 3.2020091607 3.4874750828 3.5963562134 3.6520716692 3.5966481005 3.5348299867 
3.2841966903 3.1123572087 3.5695132103 3.4210684175 4.3401000938 4.3859482459 4.1297599916 3.9016174412 4.1481587104 
3.6792491149 3.354747633 3.3515642832 3.4924791649 4.1552448851 3.2437174999 3.747508754 3.0991519361 3.2303399536 
3.1364650906 4.3434569967 3.8053033153 3.5683859561 4.7369996682 6.0454021606 3.456455667 5.3513261643 3.5695994637 
3.3852990441 3.1588597722 4.9165166956 3.5348270147 3.9812664761 3.7692031273 4.3375391379 3.9222462513 3.6424126616 
3.4906525596 3.6952847858 3.7949675179 3.1588488952 3.6990812953 4.3404752163 3.0954501389 4.9248828838 4.1644963794 
3.576854725 3.1531321636 4.0632361836 5.2621150808 3.1386681427 3.6251571777 3.913292348 3.4451023604 4.15619227 
3.5645377266 3.2907478439 4.45377711 3.8439944293 3.8287619562 3.2535750182 4.0846273953 3.933144257 4.8645023556 
4.1950291308 4.4400622104 4.2610860291 4.6322783296 3.6738693734 3.3938651868 3.1882188932 3.2028858042 3.4397235784 
4.2608606198 3.5182372401 3.5444036554 3.6760097324 4.3833387987 4.2990543154 3.6260801004 3.8004158161 3.5882527535 
3.5298827228 4.5274229696 3.5933390841 3.5327263756 4.9875121508 3.5103098717 3.3442791444 3.3474249832 3.5207659633 
3.3929963003 3.9092212136 3.473754025 4.0654291072 3.9133980013 4.0127114567 3.9396646918 4.3768320355 3.2612286253 
4.5297067461 4.1333410011 4.9385286538 3.7145693727 3.7746737992 3.2683912429 3.0726031643 3.2380859083 3.589983802 
3.9085825997 3.5766102653 3.6157143762 3.5278926823 3.8536433086 3.528094773 4.6422009892 3.6192234726 3.5610914352 
3.7033895097 3.8002011771 3.6660100424 3.3382240854 3.9234689043 3.2811108564 3.7601404113 3.3573780371 4.7478891238 
4.0135677335 3.8758598123 3.760926315 3.509479844 3.3046265157 4.6635005405 3.1281291119 3.7803836645 3.5228868055 
3.335133396 4.4343469533 3.7153984515 3.1551213624 3.4023588502 4.3522821792 3.266889596 3.4024213762 3.2869724822 
3.3181745538 3.5352808562 3.1840785748 3.4112965595 4.1286745589 4.5678972568 3.7235894048 3.4762525164 4.8841048781 
3.3285097669 4.0296408956 4.3625678897 3.3489099853 3.7333438946 3.9171698397 4.2993870489 4.1249819827 3.9607558833 
3.4224996543 3.8153284947 3.2582895348 3.1996804211 3.4406783529 3.2536714647 3.709572029 3.4437396605 3.6593826324 
3.8756013857 4.2941123992 4.3420755009 4.1729867005 3.8570921326 4.1292846531 4.5053285506 3.1713442326 3.5632499862 
4.8328302252 4.3183866472 4.8969314851 4.03773405 3.7888099773 5.0516533284 3.7280541935 3.8350428729 4.0617208213 
3.9081090594 3.0868359808 4.3799110225 3.6685093534 3.1756873397 3.1732020322 3.5033252954 4.5058209858 3.6702329675 
3.539147979 3.3754523142 3.4490141803 4.4038908627 3.3943767691 3.1727762451 4.6461844395 3.6883670272 3.8112565209 
4.4877260237 3.3441992614 4.0033829655 4.79814541 3.5870921629 3.7385334451 3.3616805111 3.7996988424 4.4347438269 
4.1878410108 3.3050806237 3.9137878787 3.4446797664 3.1917007351 3.9281139017 3.142692512 4.0930907078 3.1322700955 
5.1325382197 3.6094467427 3.1138372395 3.7969323148 3.4438059372 3.6639770632 3.5842304472 3.3658086434 3.782868964 
3.1144026958 3.3093622862 3.1100321215 4.2756129282 3.4921386038 3.6028378189 3.2339799254 4.6325815469 3.2635677187 
3.8742239077 3.5491401666 4.102660273 3.4833336109 3.4201346721 3.4605702814 3.163784455 3.3256218518 3.7884125138 
3.7631157665 4.2919573266 3.8254290455 3.6181054269 3.9204527513 3.7424793235 3.605212453 4.1401484493 4.1153946209 
3.9998869745 3.4160789059 3.8625269049 3.2318712471 3.4913079777 3.3369391927 4.4168526962 4.0123475805 3.7909761621 
3.9025286499 3.2176677495 3.2407157187 3.3983861056 3.6687764964 3.2077343495 3.6918326801 3.6586811253 3.5582084872 
3.2958030627 3.2579900303 3.4687413968 3.3604411766 4.073488425 3.6675414073 3.265431861 3.2862355904 3.6502001323 
3.2327371166 3.3851575695 3.650451777 3.7878954793 4.0839454247 4.0940757562 3.656902621 3.852194168 4.4429875657 
4.1343609567 4.1560164797 3.418571613 3.6987194075 3.2832346808 4.2019489287 4.266859129 3.6882846889 3.3765501403 
3.9998133756 3.4177185739 3.7444721645 3.2222236758 3.740288922 3.6686822853 3.5863518143 4.2090982802 4.2080556813 
3.9111256806 3.6155960123 3.5749333259 4.0446315904 3.7235115452 3.8051953478 3.3136738336 3.5782454642 3.2373244687 
3.2688035869 4.9543198324 4.5737541848 3.5612726301 3.3915949242 4.0828366556 3.3063756069 4.7391773319 4.4389439577 
4.0823398492 3.9231191628 3.8679504506 3.756029591 3.581543997 4.4788509658 3.648303942 3.9235279134 3.2278243975 
3.3886346962 3.7333346662 4.4605559924 3.7676786215 3.3669081042 3.5042246507 4.4604810953 3.4926500012 3.7701078703 
3.6280791248 3.8425740825 3.835703746 3.6160168423 3.5371865131 3.6530255151 3.2274375372 3.6201217352 4.1016087421 
4.0970234354 3.1100498362 3.1823139637 3.2945376036 3.3249352232 3.2417748173 3.8439581086 3.2014551459 3.6516651823 
3.673537158 3.9087115418 3.4299045104 3.267268363 3.3659886054 3.0661545538 3.3632208546 3.349226859 3.2972949155 
3.9854201686 3.4024049325 3.503780375 3.6558626305 3.4482528222 3.6022867606 3.1887119219 3.6184082704 3.3342861879 
3.5720490997 3.1784311455 3.3560557882 3.2469040894 3.3646125025 3.2937991882 3.8460418679 3.3153041609 3.3109861543 
3.7317611062 3.4499129407 3.4883172086 3.1115711839 3.6634085255 3.6620443302 3.1076302826 3.1543484408 4.2843017689 
3.5989262658 3.923531307 3.6504962728 3.3909538944 3.5577939151 3.241433431 3.8344899173 3.4979306583 3.3947118664 
3.5861374958 3.4169023721 3.4998241979 3.572811845 3.3507641907 3.9274811712 3.4670252339 3.4067029617 3.2414524172 
3.1306767089 3.527827752 3.405882705 4.3244207986 4.8583675083 3.3362767218 4.616931739 3.457367673 3.4379685613 
3.520073668 4.2296548615 4.2494659819 4.1692406084 4.0852461071 3.3740252202 3.4593061521 3.2018203242 3.329951657 
3.4306122421 3.6598332025 3.5631056139 3.4828797124 3.66444673 3.9643842206 3.3832457003 3.365566888 3.4028051789 
3.4208812115 3.5589333875 3.3417652168 3.4607118169 3.3044712164 3.6915286763 3.2745521911 3.4692870304 4.2908383728 
3.9922205188 3.4643105488 3.6112306045 3.2181555316 5.0915025304 3.4893016359 3.7540452474 3.6851818613 3.7119371197 
4.0122580838 3.8983240565 3.855430266 3.679105383 3.3886218059 3.5452850571 3.7222575982 3.4707461808 3.9630765971 
3.9867676206 3.6832789299 3.3745280668 3.2180684784 3.1834508773 3.0981793164 3.1057375685 4.0480000874 3.6913483684 
3.5905912595 3.8572874868 3.1415359048 3.1028932382 3.6639217872 3.9084498097 3.2488326408 3.6342057362 3.733973782 
3.099276032 3.9330212935 3.9758607558 3.1619841805 4.6470249423 3.2664202523 3.7354233026 3.748328539 3.6738795651 
3.1212370689 3.5256959842 3.2485066738 4.0428373864 3.3204929397 3.8715007932 4.3208924591 3.9061382622 3.2657990766 
3.4700748818 3.2831226446 3.6555766155 3.3036750628 3.6905827222 4.257246243 3.6458311562 3.3433953679 3.3385027328 
3.4168900889 3.7314000408 3.9248279393 3.7053047783 3.7568836399 3.3354233969 4.4846726468 3.869570306 3.1834054523 
3.3944408179 3.7709978812 3.5082375278 3.4747133783 3.386599907 3.5101736918 3.9892737765 3.5950114358 3.5216104376 
3.7433340032 3.7257335849 3.585904768 3.4659192415 3.2913137434 3.3722893301 3.7252589613 3.1010944696 3.552190776 
3.6206474403 3.1158884741 3.6799202039 3.6700751109 3.6149761261 3.4749597245 3.6654553225 3.2007519057 3.287453184 
3.4187026584 3.250140712 3.7117724468 3.6553427212 4.243042785 3.2172249277 3.172997625 4.3367562664 4.1742810128 
3.470986828 3.5187272588 3.3111436654 3.3247926488 4.0956424509 3.5566784568 3.7209608643 4.4228948524 3.3441267234 
4.0858633889 3.4796081936 3.3615751737 3.4128350838 3.4370356635 4.0881504575 3.3617233051 3.0802705736 3.1493895249 
3.5119373334 3.3847672584 3.5724291813 3.1403556155 3.5198959116 3.1842319367 3.6625654293 4.3889310055 3.3311556373 
3.9258459593 3.6393103242 3.1451100474 3.6918843718 3.5946066738 3.4179312588 4.0405241007 5.6942277246 3.4156034618 
3.2648650387 3.8806382699 3.3321288709 4.1904391433 3.7487006108 3.3949393927 3.3713665033 3.2208104234 3.4787145632 
3.3794631569 4.0118472944 3.3528153581 4.064251114 3.7123885234 4.0482691125 3.2029352695 3.9031680071 3.357336713 
3.5616719143 3.9322437498 3.6186682471 4.1758996465 3.3624460315 3.945665152 3.5520455752 3.2322418117 3.3849007072 
3.5055225386 3.6999062456 3.8832247294 3.586004381 3.5737937857 3.2494657854 3.2081384548 3.5379464917 3.3883723304 
3.1410107492 3.1839091789 3.0487850485 3.8621742184 3.2554148012 3.2742445557 4.2374604637 3.1287484426 3.1269592916 
3.2483043445 3.6066756629 4.4036106042 3.3514797159 3.7095102699 3.8924917293 3.8136656968 3.333339619 3.9401953972 
4.0470111237 3.0653665095 3.5600968937 3.6196890548 3.5811912589 3.6759456248 3.8106245985 3.7431348157 3.4061461206 
3.7220397088 3.4453934855 3.6388817057 3.7246509119 3.3083639017 3.4364685078 3.9689027518 3.6064140917 4.6782954793 
3.4345153087 3.470800899 3.8798828013 3.3415230251 3.6591046491 4.8022711957 3.1746244269 3.3946004848 3.4845331084 
3.2624099738 3.4307160683 3.6304088921 3.4417332584 3.6116651775 3.4948838225 3.6110588974 3.1420374695 3.7080099069 
3.5405125306 3.5368570036 3.8345228088 3.9048477329 4.0978081405 3.8055353063 3.6395183254 3.4171294425 3.6057893218 
3.4508149182 3.5277170693 3.332440915 3.2579953827 3.5842737737 3.376228443 4.30143967 3.1871564162 4.2251098387 