# vtk DataFile Version 5.1
vtk output
ASCII
DATASET UNSTRUCTURED_GRID
POINTS 1142 double
-0.47779708862 1.2044415283 0.14057357788 -0.45443870544 1.1344273376 0.5272221756 -0.45114044189 1.052321701 0.15727753639 
-0.43187397003 1.5775883484 0.11817568779 -0.40942510102 0.7801875767 0.18555029409 -0.40036514282 1.3952558899 0.48982826233 
-0.39028195923 1.0011658246 0.48773356781 -0.38683383942 1.4132385254 0.025814797878 -0.34725559235 0.94111686707 0.04354947567 
-0.34032649994 1.1047592926 -0.13262104034 -0.32163669586 0.57544624329 -0.023655781746 -0.31209138469 0.67451867694 0.38479477326 
-0.30590118408 0.95345436096 0.34679851532 -0.28966300964 1.2676205444 0.65809715271 -0.2823482132 1.6181199646 0.33813983917 
-0.20216091156 0.47263912201 0.41967159271 -0.18633102417 1.6080918884 -0.1717830658 -0.16354320785 0.74811159423 -0.28923562989 
-0.15107084274 0.34969818115 -0.030128114223 -0.14271224976 0.32670696259 0.30174074173 -0.14192616463 1.5065608215 -0.2275869751 
-0.13544190407 1.5114079285 0.54734443665 -0.12905573845 -0.042483110428 0.45529258728 -0.11636395454 1.1060767365 0.67869941711 
-0.10925118446 1.0227374268 -0.22272987366 -0.10868185043 0.0026126861572 -0.02896643877 -0.094235591888 0.95626037598 0.49197956085 
-0.08924331665 1.919604187 -0.66112365723 -0.084918632507 1.7393972778 -0.47282009125 -0.08410741806 1.7248072815 0.16080654144 
-0.051641020775 1.6559915161 -0.065839271545 -0.051297011375 1.4089709473 -0.24916965485 -0.043095946312 1.856726532 -0.41247215271 
-0.034255440521 0.087682446025 0.14953446477 -0.033866574764 0.74307807922 0.60829826355 -0.02851667881 0.56855621338 0.57395664215 
-0.0091374242306 -0.0449223423 0.257635746 0.027513085692 0.010812069733 0.59270359832 0.030016524792 1.1500900269 0.51835220337 
0.037607355118 2.0542288208 -0.74132736206 0.042269067764 0.49889526367 -0.3343296814 0.06539642334 1.73165802 -0.68631187439 
0.066614322662 1.5007489014 -0.3923443222 0.072608304024 1.6207740784 0.38803653717 0.091964054108 1.5325791931 -0.72716911316 
0.096086101532 1.6334234619 -0.28706108093 0.096091432571 1.4286206055 -0.20655334473 0.10630666733 1.4552011108 0.33999763489 
0.1118372345 0.8213885498 -0.40400402069 0.12478515625 0.28139183044 -0.085576095581 0.12552153587 1.6643208313 -0.85508903503 
0.12772389412 1.6628717041 -0.16851551056 0.12839562416 0.12703773499 0.13655940056 0.14103906631 1.7070591736 0.060599598885 
0.14675690651 0.15851549149 0.49685089111 0.14746242523 0.24772098541 0.40546211243 0.16760759354 2.0032765198 -0.879686203 
0.17810266495 -0.044501867294 -0.10753605843 0.19315229416 1.4487164307 -0.14587049484 0.19359399796 1.8524940491 -0.099951019287 
0.20122390747 0.054347801208 0.21582963943 0.20786214828 0.14684858322 -0.12249574661 0.20795091629 1.6441908264 0.077761735916 
0.2121626091 1.8803321838 -0.57907108307 0.22645463943 1.2202006531 -0.21390743256 0.24920841217 0.89622932434 0.55262722015 
0.25395442963 -0.04379242897 0.56363140106 0.26369541168 1.4813134766 -0.010215260983 0.26934791565 0.027167625427 -0.35005134583 
0.27954601288 1.1586775208 0.35043437958 0.32439544678 2.1002728271 -0.82008354187 0.32592617035 0.42803333282 0.6142276001 
0.33763534546 1.2801441956 0.073493585587 0.34747562408 1.0986927032 -0.31191350937 0.35695903778 0.19506847382 0.59895145416 
0.36618694305 1.7922842407 -0.9039465332 0.38970542908 1.7224230957 -0.77260139465 0.39748729706 -0.0054936122894 0.74100326538 
0.42101760864 0.47970211029 -0.29488084793 0.42481330872 1.9345336914 -0.72657989502 0.44791599274 -0.043762674332 -0.37100746155 
0.45233760834 1.7857455444 -0.049178934097 0.46724025726 1.988775177 -0.40792804718 0.47098674774 0.80790664673 0.63231731415 
0.54133223413 1.1430680747 0.40116994309 0.55448108673 0.68737991333 0.79553642273 0.571300354 0.50134513855 -0.52854576111 
0.57804805756 1.7410041809 -0.41205173492 0.58453983307 0.74078987122 -0.37414302826 0.58473899841 1.2240473938 -0.027445607185 
0.59085739136 2.0838616943 -0.23531446457 0.60082122803 1.9222512817 -0.61202301025 0.62234329224 2.0986842346 -0.52998886108 
0.62361850739 0.39228687286 0.82613182068 0.62905254364 0.15778938293 0.69487838745 0.63725978851 0.15152540207 -0.34182697296 
0.65301673889 1.0412385559 -0.3314812851 0.70726463318 1.9653768921 -0.6128704071 0.71060073853 1.7549081421 -0.29638845444 
0.72726417542 1.7176147461 -0.39699691772 0.73037887573 0.72443183899 -0.52714805603 0.76391418457 2.065586853 -0.46936424255 
0.76748603821 0.185779953 -0.39948394775 0.78996772766 0.77436576843 0.8060824585 0.82216549708 0.5027619914 -0.53655963674 
0.8510243988 1.1370315552 0.62182723999 0.85426696777 0.45918758392 0.82855262756 0.87210227966 1.1245435333 -0.23216226578 
0.92319976807 0.84923072815 -0.33251831055 0.92940299988 -0.043758926392 0.64360237122 0.93501815796 0.056180591583 0.67366584778 
0.95777349071 1.2913575561 0.46350412051 0.97537219593 1.3547906957 0.2151630145 0.98415664673 0.68944732666 0.799324646 
0.9992099762 0.43733474731 -0.42988517761 1.0159133911 1.2946539307 -0.030169951916 1.0966397095 -0.042962579727 -0.25981586456 
1.0984670258 -0.042475299835 0.0052998673916 1.09910296 0.28789947448 0.67886084318 1.1030432129 0.85698425293 0.70802627563 
1.1051968384 0.14210021973 0.58241394043 1.1287877655 0.13412027359 -0.25136627197 1.1335316467 0.7050806427 -0.3786700058 
1.155950867 0.92340622102 -0.26578498742 1.1844607544 1.1298231506 -0.23773696899 1.2485605621 1.0537793732 0.56764583588 
1.2577135468 0.59765464783 0.68235374451 1.2618504333 0.29086013794 -0.27820596695 1.2753908539 1.2394514465 0.12148623466 
1.2787185669 0.54390266418 -0.31472309113 1.2855511475 0.19179309845 0.58154289246 1.3078540039 0.10958204269 -0.033702266216 
1.3453196716 -0.043283376694 0.51523780823 1.3551338196 1.1406500244 0.39570690155 1.3648423767 0.88094070435 -0.1898950386 
1.4094311523 -0.044103326797 0.11182741165 1.4369551086 0.88025215149 0.51590000153 1.4820736694 0.35052566528 0.048666801453 
1.4835491943 0.67885910034 -0.13943424225 1.4875590515 -0.044382696152 0.33966018677 1.5047099304 0.4571648407 0.40923286438 
1.5228257751 0.95231910706 0.044325332642 1.5432023621 0.65071121216 0.40496780396 1.5488768005 0.4857277298 0.18585037231 
1.5995489502 0.28517459869 0.0617598629 1.6402365112 0.36398204803 0.44897693634 1.6599354553 0.48370319366 0.19516136169 
1.6846588135 0.31548362732 0.21618377686 -0.31316026409 1.269739415 0.2022950867 0.8574951042 0.67336996653 -0.19504034462 
-0.13595992803 1.101730315 0.45834838745 -0.21354572441 1.3025287183 0.47705295228 -0.22242947341 0.78295570878 0.26190765352 
-0.14932920562 1.0108764426 0.22604302545 -0.15544912294 1.2941958288 0.17608487998 -0.14818529855 1.5299546512 0.23430004526 
-0.019129680902 0.65719634252 0.094782312969 -0.16225801469 0.75328776467 -0.012206002238 0.49524646112 0.86266215142 -0.21039081117 
-0.16109663461 1.2354419691 -0.022931438853 -0.12170544153 1.5142977019 -0.043170909143 -0.10558256246 0.78706648953 0.12973320368 
0.13568327169 0.26521048354 0.15040430765 0.045719165767 0.53353925623 0.38168301964 0.10289870981 0.73382179536 0.48082174207 
0.12782769296 0.53467439512 0.17390744419 0.10318855734 0.75945713558 0.1939942028 0.16804016137 1.0174712114 0.22688252048 
0.13036969198 1.2604340354 0.25159419185 -0.11303390979 1.6175095393 -0.34695854846 0.67921155955 0.10830162979 0.07476620773 
0.038184391786 0.51182994217 -0.020264635571 0.027704319568 0.79703015518 -0.0055759886847 0.12535880147 1.0582510029 0.00011020313574 
0.1378207809 1.248944921 -0.096152910241 0.11083853623 1.5471687358 -0.013514024649 1.2012862355 0.85670801011 0.10018269815 
0.001324778432 0.3023932901 0.091802097777 -0.15010865136 1.0629219946 -0.022581055867 1.0058097615 0.22361224914 -0.13826486768 
0.34995729629 0.067416601402 0.45291829312 0.35660167406 0.260816936 0.44248135191 0.35786004767 0.51849480469 0.48047119096 
0.37816896965 0.80081254421 0.45003260172 0.46298305275 0.28515317186 0.092618761622 0.3387670933 0.30384886295 0.16107295509 
0.35439852434 0.52847643067 0.19194056743 0.38422324008 0.80651161723 0.23721406576 0.36844541309 1.0279137945 0.19654683221 
0.37601745478 0.27823167213 -0.044295772148 0.35537046477 0.53507908405 -0.076417334423 0.37202441261 0.70987151425 -0.045458177245 
0.34144732343 1.0030745225 -0.010388165648 0.72353713968 0.10942737621 -0.091915288663 0.34086209229 0.77121570369 -0.26424912278 
0.39178674873 0.64392710844 -0.19139550917 1.1833428934 0.11685641981 0.23746765616 0.60384250781 0.53688039983 0.68850345263 
0.61558778504 0.089979656968 0.44485146653 0.63712787396 0.2975673031 0.45498373735 0.63761497079 0.48059085151 0.50541875882 
0.58061670808 0.79078437788 0.44769428924 0.60164146507 0.25042777389 0.18517496079 0.64264684416 0.55246166254 0.20583950355 
0.59076252279 0.7684129728 0.22791405074 0.61959250939 1.0422284268 0.19571577929 0.57985271584 0.24904360347 -0.021957627591 
0.60840863152 0.52690685521 -0.0050505804147 0.63937261562 0.81550482825 -0.02980851504 0.63249257033 1.0324615233 -0.020651218326 
0.61935874639 0.51659905643 -0.31266168403 0.070896328282 0.74688363983 -0.22196804504 0.21065106116 0.87891949173 -0.2213454557 
0.57333694448 1.7745045676 -0.31169172672 0.87758797458 0.5584480296 0.69552382958 0.863791044 0.73926926236 0.66402879657 
0.82265665253 0.075733679179 0.47564855519 0.84042739224 0.2929026024 0.46556247451 0.87525379253 0.57592909828 0.45037846383 
0.87553452585 0.76688990946 0.46368500077 0.85062242247 1.0144573479 0.4628631452 0.85639160637 0.061698300211 0.27226138573 
0.86806919618 0.32080033488 0.21930525032 0.84498977869 0.51306725571 0.21062904319 0.86659099348 0.78609622063 0.24839559558 
0.80606055707 1.0259470618 0.23725466366 -0.31790424756 1.1650538267 0.43591585101 0.84198552579 0.066216087884 -0.0081152825138 
0.88822788756 0.22759541407 -0.040046091078 0.86294808249 0.52673952939 -0.027582446953 0.86890636591 0.79056219709 -0.026341354414 
[...]
CELL_DATA 4572
FIELD FieldData 1
color 1 4572 double
3.1449784859 3.3363556488 3.3839463178 3.7423213223 3.297206293 3.3299102496 4.4949498502 3.1766417246 4.0131432243 
4.0712238892 3.6239921974 3.0726792419 3.262928868 3.6648992745 3.4253888657 3.4509086383 3.5121709844 3.1872588606 
3.1083567073 4.3110029156 3.5879827299 3.6798838042 3.8713301882 3.4756377715 3.4230126434 4.1028134525 4.1774807658 
3.5009620388 4.1244019161 4.6680530969 3.4256313933 3.5471404048 3.7075562387 3.243997286 3.3938953216 3.1522777337 
3.1406664393 3.5707249152 3.8109733671 4.6208300882 3.6863254691 3.2589313215 3.0905084483 3.2709620036 3.0366396521 
3.6724164267 3.6943821897 3.51615736 3.2176868387 3.4334014511 3.2329802002 3.3240133737 3.1783248019 3.4591305044 
3.4717260979 3.7665147709 3.6573838042 3.7740163715 3.3505517604 3.4541581111 3.4940935561 3.6836139955 3.2834223627 
3.6095354794 3.5435975572 3.5472074654 3.2884617349 3.1797943475 3.1391699172 3.1954614335 3.7700382737 3.7722545027 
3.3232639585 3.7186748729 3.7542157092 3.8469540109 3.4260961246 3.3756098789 3.6133649477 3.3845766487 3.2695995235 
3.2425772034 3.3840075565 3.1577802697 3.3899745932 4.9286111591 5.8487090538 3.1996345747 3.4392587327 3.3027567391 
3.78139227 3.9165441737 3.4354915884 3.2173074629 3.7628508757 3.6580938192 3.4771625211 4.2178440596 3.7425193954 
3.8249096227 3.4514478395 3.4526026801 3.4700082635 3.282179646 3.5862870261 3.5596595674 3.1771584712 3.0659037391 
3.410078861 3.3001842216 3.5220726755 3.6963963929 4.8136675584 3.781650706 5.0620346344 4.0752931895 3.6752332529 
3.3134246147 3.9259171207 3.4958549906 3.2468272574 3.936743365 3.4023235711 3.288298513 3.3089824226 3.2163028749 
3.3981274406 3.2242620391 3.6761812899 4.0434942578 3.1817489638 3.1230506496 3.2849960464 3.1666469561 3.5714421992 
3.3077179671 3.6050921492 3.474327964 3.7671032139 4.6006761462 3.5228731667 3.1517984668 3.6660115526 3.2918769104 
3.4253457387 3.6855326098 4.1033361213 3.3645183044 3.3948425699 3.3371492648 3.6755571185 3.2318131369 3.023898681 
3.7740386875 3.3242638601 3.1900993427 3.2883187295 3.4955997015 3.4144163868 3.2635541897 3.2344763209 6.1150515454 
3.10890034 3.7249016158 3.2888986468 3.8510727391 4.3861533404 3.8045765747 3.1999395847 3.0995289212 3.4762351486 
3.8155157808 3.4230318818 3.5557732721 3.8414752532 5.0029833759 3.2889122726 3.8445260551 3.6719462385 3.3751556766 
4.7130404004 3.8094685559 3.72845039 3.5361276906 3.4648700417 3.1923658505 3.2096029836 3.2696361763 3.2019299835 
3.4887579044 3.0579464611 3.161975077 3.3144664167 3.0971612643 3.4971425342 3.3437576135 3.2050678811 3.622808044 
3.2049776556 3.0609130138 3.8518671303 3.3381762881 3.4756378684 3.5157000405 3.0970406325 3.3911089743 3.6195233617 
3.5218922678 3.7663185915 3.5014598231 4.2302185661 3.1967961758 3.0424881339 3.4368153911 3.238488594 3.5113252491 
3.3702898515 3.320998743 3.4181449833 3.4409974523 3.4292918106 4.3281911962 3.7943208235 4.3473659314 3.2311389401 
3.9509575572 3.3317215469 3.7406245554 3.4731489264 3.7225829202 4.1467637556 3.0706122051 3.3972398043 3.7724468713 
3.4246745507 3.3056538258 3.2961943554 3.8669221427 3.3361763606 3.1183695551 3.2567433816 3.0871271123 3.5596599615 
3.1505352221 3.3728722962 4.4458978205 4.1930461664 3.3463865938 4.0048728011 3.4750318608 3.3474679098 3.7157116068 
3.1007546703 3.6700212537 3.376427293 3.4356037358 3.6685819658 3.5343435263 3.8053732439 3.9927575144 3.8001923708 
3.6666398972 5.6973638657 3.3511279178 3.0393029984 3.3731962361 3.2730918682 3.7413172911 3.4691428266 3.576080886 
3.0686492274 3.4898379717 4.4190150384 3.6271825982 3.5841768157 3.1798890326 3.9423759551 3.4463418678 3.5852022829 
3.6608557089 3.2875701808 3.1759156477 3.2081515837 3.3503965051 4.421576773 3.3119661439 3.6416859946 4.1963152448 
3.7553757988 3.5958153811 3.5412371756 3.6531332532 3.1705605424 3.3840356183 3.121507704 3.4738294342 3.4472067623 
3.8407051407 3.2879537038 3.5576948898 3.3040752852 4.0668551885 3.4295067097 3.3551934232 3.6984746517 3.8138150401 
3.3239673166 3.3004992129 3.2602529699 3.5438807291 3.4161454761 4.2763184138 3.7885438659 3.3990352866 3.4832230779 
3.4092953848 3.0681247568 3.1067795752 3.3392412022 3.1331195603 3.3425496819 3.31820472 3.7688879871 3.1956579555 
3.3692611408 3.5185290425 3.3145417264 3.0886678128 3.2730553637 3.561574922 4.1806374495 3.7195943231 3.5292701368 
3.39042818 4.3590071357 4.0584784863 4.1201502243 4.0756021959 3.066392701 3.2814511557 3.3609162138 3.6319253934 
3.5410756811 3.4012981426 3.331483364 3.0821594606 3.2580594221 3.1834806507 3.584677252 3.4065564134 4.4383100174 
3.3485483302 3.6633245238 4.330845832 3.6973136531 4.2247468267 3.7463839647 3.5907609018 3.4982852787 3.1113496103 
3.0549815893 3.96369361 3.6284627407 4.1368783618 3.7925424588 3.5627529269 3.7111028706 3.173480618 3.0785192621 
3.1311618271 3.6931931947 4.0042796087 3.5810980122 3.4737570119 4.5656913725 3.637605285 3.6408896224 3.5900001666 
3.8280285167 3.5992656176 4.4227190622 4.1053538825 3.467704664 3.1455536862 3.7059572516 3.3159723326 3.4595229105 
3.4062084572 4.0386493128 4.3764936929 3.4804535356 4.5914947087 3.1565907521 3.164954259 4.8567983689 3.1930500481 
3.5565867651 4.7886065696 3.6293834482 4.0269629127 3.5992693339 3.6407218589 3.5709656347 3.1354385022 3.0821175679 
3.0556321657 3.178383427 3.209730257 3.7979321723 3.7794890478 3.2128166495 3.2767996924 3.2669578998 3.1994847538 
3.5687043213 3.4530743934 3.345037349 4.1041302945 3.4214129702 3.268231117 3.0669875972 3.3712625973 3.4608703327 
3.9854552626 4.5886938518 3.5125100175 3.2956004372 3.440127385 3.5150492687 3.7787541119 3.3281707243 3.284783253 
3.6131287613 3.233196216 4.2100321239 3.5507888876 4.6590058541 3.728380082 3.262983212 3.4826861337 3.4559414226 
4.1389438886 3.3150489984 3.5524186177 3.2299220087 3.3062429912 3.7892445371 3.9198322001 3.4587277382 3.772501751 
3.6592693994 3.5795057419 3.076818113 3.2772496492 3.5814037179 3.5303936811 3.6305298372 4.4887084972 3.8041950692 
5.2466003336 3.4567115218 3.2108648925 4.0226867568 3.257736095 3.3333489333 3.6036136519 3.0782643203 3.3644389258 
4.7694795402 3.8975321541 3.6184590393 3.3757876424 4.4684811876 5.2258595742 3.6345848675 3.6223741603 3.0083735024 
4.0140781838 3.3461368383 4.4978778023 5.0055843463 3.7357698034 3.5269082678 3.5591431055 3.8291476901 3.857257513 
3.8517472439 3.2046904967 3.3908085652 3.6424377048 4.0838108901 4.0848979329 3.3950906849 3.604834995 3.7008046938 
3.6249406544 3.6902701855 3.2961283909 3.2217881771 3.3990045283 3.6594523171 3.3170677076 3.5075386117 4.612174006 
4.6522548474 3.3638297449 4.1004093709 3.4708263045 3.9098544315 3.2492231053 3.4468147235 3.4563434991 3.6054387826 
3.2676768278 3.5687871466 3.5163747375 3.3456890345 3.2499256951 3.4111973606 3.1583216474 3.1252969134 3.264223482 
3.5053694374 3.8142297568 4.1139954538 3.5652795955 3.0828158942 3.234441979 3.161279599 3.4570329986 3.1218187971 
3.2567081981 3.4812062673 3.4660012488 3.6176920409 3.3136551462 3.4989567412 3.2830729958 3.2043741038 3.2504217624 
3.6439351644 3.6042719955 3.4283034989 3.237015543 3.3873610325 3.5186978841 4.0853108213 3.8965397855 3.1522786069 
4.0858487921 3.7708517336 3.8265778642 3.7372248168 3.1485046796 3.3036099791 3.4454332309 3.7458439008 3.6524406991 
3.863836427 4.56350789 3.7648697394 3.5874238579 3.1767697998 3.3719982639 3.7753500254 3.1668887389 3.6794079185 
3.394636424 3.572169302 3.3860525429 3.6361673354 3.2551532124 3.302700799 3.3211264269 3.1136470126 3.108168119 
3.2413972211 3.1995173054 3.1428127176 3.2516135972 3.1014627818 3.2995198218 3.24685378 4.2379937121 3.2214670443 
3.1673634833 3.3936761862 3.3223295588 3.8158018515 3.9541358898 3.1010180534 3.1938216212 3.3023722613 3.4799958228 
3.506624772 3.5825970943 3.2981285706 3.4354057369 3.7019140459 3.4251013353 3.3453112697 4.7018869538 3.3496510614 
3.6318178206 4.311225615 3.4504433064 3.3886475019 3.7725959905 3.5451872127 3.172842778 3.4303316949 3.5636548486 
3.4336284874 3.2677057265 3.6038515178 3.4356580235 3.5217861481 3.1230838084 3.0243213294 4.0171338729 3.9448325913 
3.7562752311 4.0034682883 3.318661598 3.3856016909 3.4824992192 3.3860965895 4.1560268336 3.7715110402 3.7318886659 
3.4628354859 3.8470619521 3.8090953347 3.517929913 3.0551978378 3.3704375222 3.293569071 3.7411885205 3.2587194909 
3.8660207357 4.1451631199 3.0821006138 4.1783690869 3.2081894665 3.5709364411 3.6971480345 5.4438091111 4.3187544022 
3.4755940435 3.5375306627 3.7127584158 3.8604562905 3.7791287867 3.3258628468 4.0488240314 3.1417546682 3.4761653504 
3.7826705555 3.546280265 3.4715358976 3.2449571698 3.2548823657 3.8435372799 3.6927685301 3.6814474368 5.1213181077 
3.2852525136 3.5652065423 3.8413489926 3.1912624022 4.6539769836 3.1127584847 3.3162060055 3.3136084112 3.2999456977 
3.8036888767 4.5214161277 3.372101212 3.1791123405 3.2528779903 3.3255362146 3.4520625633 3.938107626 3.3006673632 
4.0350825892 3.1102985033 3.2048321333 4.4201919917 3.2004957958 3.3582830077 3.6654618973 3.6894326784 3.3974470089 
3.732510896 3.8755462077 3.2701597969 3.4196132079 3.6186802961 3.1401228645 3.288348171 3.7643324062 3.7548019639 
3.5428477845 3.8788472894 3.1978038039 3.2676720017 3.4602705297 4.1124589121 3.236466939 3.5974853231 3.87515901 
3.5636216481 3.682784248 5.6924038712 4.0872970717 3.3235136949 4.0028209357 3.7214045358 3.1108845735 3.1864805515 
3.0489672892 3.1624962085 3.3822394062 3.167407786 3.3772203539 3.2058439866 3.95029795 3.2632261887 3.3445204012 
3.1703213076 3.4326321406 3.250696652 3.558479362 3.391356729 3.2607934965 3.3950333361 3.3555697425 3.9069576144 
3.7027786764 3.8613784794 3.6642151817 4.3068461098 3.5380717857 3.5030840887 4.2161858026 3.132755678 3.5549039799 
3.2668137135 3.4937424246 3.3771704541 3.3412953102 3.6015695195 3.3342767254 3.2971959787 4.0439777637 3.9130194837 
4.2770782524 3.7723195116 3.6025268701 3.3573340019 3.7513708988 3.7583806841 3.8023421134 3.53842112 3.435680212 
4.5616055183 4.0870854601 3.2877663289 3.6777442478 3.7048935124 3.2812017339 3.2248442753 3.8117516032 3.4989931102 
3.0902466076 3.5497866753 4.2867197762 3.9380391737 3.3504122114 3.0550896973 3.7570664834 3.2513150722 3.178398136 
3.1220725319 3.155947011 5.1362065215 4.0129351175 3.1423355417 4.9032052432 3.3812249193 3.3106915431 3.7531305409 
3.2564001017 3.34340289 3.8125049911 3.5023038398 3.2203920816 3.7944483416 3.2156831398 3.6791898288 3.8583755789 
3.272821419 3.6352103185 4.1146497351 3.4909994437 3.8700629647 3.5725165514 3.2131002339 3.4076125306 3.1448160595 
3.4377344846 3.5256232694 3.1237011377 3.3966337686 3.6545946529 3.5946747826 3.3637238832 3.3918495334 3.2575606475 
3.1205503095 3.6831492655 3.1270983026 3.6683738504 3.8988420163 4.1406567851 3.4665211723 4.2117466483 3.6399457787 
3.7203376091 3.547163245 3.3991992393 3.6014055887 3.4125370962 3.1550365793 3.1450564066 3.2297794474 3.4906611977 
3.4076026445 4.042624245 3.3409668783 3.160518827 3.459156819 3.0557135337 3.3841529244 3.1580885168 3.13209184 
3.4553031547 3.5953857784 3.6619772451 3.6232368914 3.4221694523 3.5259375671 3.2055225826 3.7689644712 3.8284086151 
4.2270947975 3.3332568863 3.3782319754 3.6577475775 3.385844813 3.3956015833 3.3265584397 3.2592063372 3.2142439838 
3.4097337822 3.079914153 3.290992763 3.1009451725 3.420903681 4.3573576041 4.2694223023 3.2425526912 3.733895844 
3.5420533158 4.5562786107 3.2799197469 3.3364556936 3.6713596101 3.6067125591 3.5531215796 3.3145703146 3.1840758286 
3.9863774873 3.2405051601 3.5289695764 3.472401095 3.4904000421 3.5183167792 3.8277951098 3.1050936876 3.7754060595 
3.3045722857 3.9979452073 3.4822403128 3.0944927256 3.8322458231 3.5752937392 3.1852606441 3.4311959974 3.1302282219 
3.5038067782 3.1811835425 3.496293633 3.7466305733 3.665655715 3.1804471905 3.5286756266 3.5013480039 3.1271903944 
3.1296322785 3.5463327421 3.1964906879 3.2788610664 3.2041612723 3.3134942214 3.4756426074 3.9366850137 4.1618011128 
4.1070079833 3.0865553966 3.0815430245 3.2424775568 3.3447058263 3.1985525493 3.5456627975 3.1438867723 3.1870109266 
3.2999216735 3.4639856253 3.576091685 3.5853028372 4.0736646571 3.432873302 3.3183236266 3.4179530856 3.6389105286 
3.5186416889 3.7282094441 3.2090446463 3.3871777197 3.2012828566 3.6983100595 3.6802893773 3.4417735213 3.7963610753 
3.9337879616 3.3498864036 4.1002576038 3.447078027 3.8421225337 3.4194823597 3.7119763206 3.1072366548 3.7793327518 
3.8828835384 4.1190304209 3.3739924478 3.3570489362 3.4364056657 3.2121916752 3.1634539653 5.3007045865 3.9507724019 
4.4108058368 4.2891303589 3.4097262674 3.1784468682 3.2877098553 3.2934715219 3.0892237207 3.8176850441 3.5697573385 
3.7242498816 3.3264605174 3.7292440806 3.8208921177 3.8583445617 3.823894415 3.5629816379 3.2999383911 3.6089216098 
3.3161970829 4.3229192829 3.8888722456 3.2009907311 3.1277034634 3.5082778914 3.4373996236 3.622419674 4.4657143028 
3.2845574832 3.1801314363 3.3119189292 3.1177200129 3.9624089458 3.3406099655 3.3846193938 4.4399457179 4.4581755439 
4.0155725516 3.5506215451 4.0833884246 3.1852594648 3.4652504337 4.2515773145 4.202021912 3.544285156 3.2595529678 
3.3011494846 3.8472072678 3.1913104168 4.8606114705 3.4698318793 3.6469951961 3.0724329879 3.0706407947 4.0331018572 
3.2867822903 3.8231348493 3.4809925526 3.4150444797 3.1239243302 3.6335511503 3.2162296346 3.4288909131 5.7660262756 
3.7417801221 4.7966855935 3.0409771906 4.4506637911 3.7312237549 3.4256692406 3.6694697599 3.2827185122 3.3314820612 
3.2307865293 3.3456852935 3.1473569129 3.7778346367 3.3329424937 3.2308048491 3.495768203 3.4008775297 3.4062435849 
5.1892159653 3.2610343016 3.4357342322 3.3137531248 3.7994292725 3.5132400866 3.3244630164 3.37167159 3.8000937798 
3.5870032333 3.6552514119 3.0327444942 3.9422184332 3.6484696185 3.2132170161 3.2239244485 3.572710704 3.627758273 
3.3507504577 3.0662408914 3.2727859526 3.1211335977 4.5249236366 4.7192763115 3.2953946184 3.3865194478 3.4268215468 
3.1564528559 3.2984705036 3.3000483056 3.165238549 3.1885631686 3.4281117484 3.1580702753 3.2462330568 3.3996518122 
3.3643581913 3.6172834267 3.3773556505 3.5694214128 3.8610799633 3.3802753124 3.836792871 3.3914730372 3.3916746598 
3.2467242549 3.281248987 4.5994823946 3.6235903532 3.6834607857 3.6315410088 3.4539606725 3.285795358 3.1531595331 
3.6558236851 3.6083295036 3.4541653285 3.3959559728 3.6045593752 3.2440555143 5.3248039291 3.6628907887 3.2926060262 
3.2418106398 4.999115272 3.092633036 3.2376270788 3.2383409398 3.1820368908 3.1606755406 3.1952742558 3.9904735561 
3.06270313 3.57592318 3.1856182649 3.2828036034 3.2035172226 3.4653802517 5.1182866131 3.9259214866 3.2851035782 
3.3351125959 3.1167437771 3.1554404814 3.1361386441 4.0076048196 3.576757474 3.6238783869 3.4098254777 3.2774894264 
3.8893139218 3.6257227818 3.9344892181 3.2697391789 3.9405797878 3.2502102964 3.3168744347 3.1544772114 3.3873291776 
3.3487513268 3.6281848354 3.5379104085 3.651625357 3.5574327453 3.8397305366 3.854509212 3.2891878719 3.6500386533 
3.3858228522 3.1639608389 3.6238564197 3.5763672712 4.5932282618 3.6360942073 3.5576031655 3.5300590805 3.4515699848 
6.162479919 4.9786970194 4.4659353619 3.4199719677 3.5115798062 3.6282182036 3.6964206814 3.2896584663 3.2877184281 
3.1725802274 3.1929583109 3.6080819499 3.4238882104 3.1872062043 3.3722499772 3.1609150428 3.2640885654 3.2534106142 
3.316267432 3.426957968 3.9598953607 3.7282535216 3.8137423316 4.5497001401 3.8665216375 3.8800093304 3.811118674 
4.2524123778 4.1527662559 3.1070728398 3.2940988632 3.719890683 3.128085299 3.1842031979 3.4700548846 4.1187632576 
4.5225891286 4.2872525927 3.4722253079 4.0529405383 3.2975733206 3.3032299626 3.3652400969 3.5023880282 3.211199043 
3.374373998 5.1295592371 3.5624924648 3.6312913689 5.328724222 3.5355198302 4.0759204139 3.2693412479 3.1894295477 
3.8756897086 3.2049667048 3.7953604823 3.7597757771 3.316255435 3.9736215857 3.7630705767 3.1681533365 3.4228196226 
3.182527421 3.020830128 3.3707424577 4.0204687815 3.3259342525 3.4126793413 5.6708489741 4.1665192618 3.4338483002 
3.2024000463 3.4842976378 3.4005370507 3.2142006184 3.173538513 3.0377223106 3.9794198229 3.37090733 3.6258511015 
3.5616555114 3.1800217988 4.0488446705 3.9656070601 3.7636071522 3.4537959125 3.1163610997 3.2643608687 3.5101934457 
3.2175682849 3.6359369835 3.6073211681 3.8798805239 3.6552412016 3.1215464718 3.1943167345 3.4634758459 3.72240299 
4.1634377148 3.6473004615 3.4506342522 3.6022633533 4.1470335252 3.3780512695 3.3502454486 3.7631335833 3.9115905346 
3.1195551634 3.5949822157 3.362102711 3.06611126 3.8175648603 3.5578681724 3.3193431103 3.4453569829 3.6193049478 
3.6951640267 3.597723598 3.8684756469 3.4047713396 3.2907678145 3.7287453167 4.172206509 3.5857710074 3.4889732172 
4.6980945502 3.8004133984 4.93465409 4.7218781794 3.3021254014 3.3125021857 3.4025178163 3.2761105117 3.6910263488 
3.6672915103 3.6279765115 3.5041556877 4.0884920486 3.085587331 3.3819814355 3.3029830911 3.0476831527 3.2334044497 
3.2631729701 3.3923878498 3.1108148123 3.78553476 3.4067048599 3.1963208193 3.4032738509 3.6443253014 3.060773404 
3.188542169 3.6594413361 3.2541257509 3.1763981651 3.3356776737 3.4166424345 3.6143806644 3.4979849777 3.485879745 
3.4125256196 3.8813326653 3.4316000127 3.2025788997 3.7498191216 3.565468699 3.6318841182 3.7621064987 3.4361767398 
3.3485568962 4.0409298121 3.3449154846 3.148995295 3.5384346826 3.2903032784 3.6887974432 3.1173169438 3.5267940925 
3.5487507328 3.5232921898 3.3980997246 3.3577293756 3.1585698491 3.2708661795 3.410053676 3.3016214774 3.8833406386 
3.7501068975 3.9365768199 6.3739172223 3.2227499127 3.9344700155 3.3898061964 3.6069738305 3.406101365 3.4768747725 
3.886935017 3.97394528 3.2981451914 3.6831646079 4.1945398093 3.7766734559 3.0521339558 3.8017260057 3.6679263424 
3.4752899606 3.430936194 3.4007169954 3.2057346433 3.4861921083 5.5302886736 3.6410131593 3.2779812644 3.2600851662 
3.3070409352 3.2082293465 3.2395803332 3.4439746976 4.1681148833 3.7159419808 3.7002802085 3.8819097185 3.728964329 
3.1836544327 3.2928937209 3.2648315283 3.5623864545 3.6072597009 3.2619579248 3.1775940159 3.4300359221 3.6731747746 
3.7544793328 4.1587140411 3.9505504615 3.1941808634 3.5081401351 3.7335362998 3.5958708633 3.5560026552 3.4028587406 
3.8129012224 3.5257377954 3.794219536 3.3310574956 3.4065950956 3.1371050478 3.6907144163 3.2377622619 3.7469125617 
4.4553701791 3.5588499287 3.5272290568 3.2222430412 3.5187890153 3.0351631653 3.2997133102 3.5879953137 3.5818665904 
3.3168004191 3.1387512496 3.5210272287 3.567323153 3.2628336011 3.4255388178 3.7076340393 3.1493283788 3.3586746194 
3.9728352875 3.650652726 3.6533188446 4.0675705945 3.7058051196 3.0648106363 3.1503979851 4.2747515692 3.3425121231 
3.3514253771 3.804421194 3.6620804543 3.6698079142 3.516149633 5.8467607401 3.3061374067 3.1368881848 5.2119394717 
3.3109622472 3.3307496865 3.2868252668 3.3053866963 3.4021679319 4.0906355084 3.4443007618 3.4940106007 3.8466969498 
3.1894514553 3.4417650623 3.587187555 3.5433405718 3.3267154274 3.8218359896 3.8643093982 4.0083211845 3.7717424381 
3.4825412474 3.4781931578 4.6970053737 3.3277141778 3.1278632674 3.2051234981 3.2325384309 3.408163608 3.4865072748 
3.1837847157 3.163680983 3.7359151349 3.2998703082 3.4147408125 3.7644808307 3.608285191 3.3852488606 3.3662895187 
3.6477068225 3.8858158732 3.2008287182 3.8433795204 3.2669057443 3.447366338 3.4099196596 3.6702761412 3.1262027128 
3.3093559957 3.1212077181 3.2721102416 3.1832899549 3.9827310956 3.9458773516 3.8793816853 3.0948474194 3.5351059692 
3.5818156828 3.5160953849 3.710012872 3.8773886612 3.5053056955 3.6709273446 3.5977793798 3.3064812669 3.696068828 
3.4982305213 3.3271641391 3.2460758245 3.0602906647 3.6873761632 3.6860196362 3.4927261448 3.6265968702 3.7735873294 
3.3455153329 3.2427082901 3.8566219379 3.644390759 3.5453790394 3.5737506828 4.6519068749 4.4646561012 3.0871572217 