# vtk DataFile Version 5.1
vtk output
ASCII
DATASET UNSTRUCTURED_GRID
POINTS 7915 double
-0.9375 0.94184898823 0.88243697566 -0.9375 0.86432858706 0.87901149988 -0.9375 1.031160315 0.87741342387 
-0.9375 0.75988951529 0.86435173588 -0.9375 1.1166158438 0.86362014413 -0.9375 1.2033622742 0.84162461758 
-0.9375 0.650423491 0.83440732956 0.9375 0.46341602838 -0.011460406926 0.085698200279 0.1170413983 -0.79808247668 
-0.9375 0.5620719552 0.79879052639 -0.9375 1.3145207405 0.79804501534 -0.9375 0.48667444289 0.75813728571 
-0.9375 1.3932217956 0.75513945222 -0.9375 0.42235095415 0.71648577681 -0.9375 1.4755943298 0.69883502126 
-0.9375 0.34475836158 0.65352383852 -0.9375 1.5466119847 0.63841290755 -0.9375 1.2593869824 0.66412045882 
-0.9375 1.3271763226 0.59989570642 -0.93580706097 1.2944110616 0.59867525598 -0.9375 1.2649191376 0.59190659697 
-0.9375 1.3624953747 0.59110960364 -0.9375 1.6039430331 0.5783959486 -0.9375 0.2773303628 0.58533074856 
-0.9375 1.2440286398 0.58314462304 -0.9375 1.3965381861 0.57385911942 -0.9375 1.2207041697 0.56854967025 
-0.9375 1.0659817173 0.55014858079 -0.9375 1.4242509127 0.54962407351 -0.9375 1.2000391603 0.54885930419 
-0.9375 1.1831255436 0.5259095192 -0.9375 1.4432248318 0.52317667274 -0.93646584784 1.6634326407 0.50360394744 
-0.9375 0.21282471224 0.50334886452 -0.9375 1.1713903785 0.4999953568 -0.93569344525 1.456148448 0.49273737503 
-0.9375 1.0983988533 0.45707969264 -0.9375 1.1633022902 0.46080390329 -0.9375 1.4615459835 0.46302652941 
-0.9375 1.7044451237 0.43616847396 -0.9375 0.1640989682 0.42220357254 -0.9375 1.1641004562 0.42814671993 
-0.9375 1.4608547688 0.42784477472 -0.9375 1.1731820421 0.39520124253 -0.9375 1.1135009745 0.3555076582 
-0.9375 1.4435739736 0.3730197323 -0.93577553537 0.12394201836 0.34608182494 -0.9375 1.1897533799 0.3643247117 
-0.9375 1.424960804 0.35114069581 -0.9375 1.7574583337 0.32640293807 -0.9375 1.2136407137 0.33753916025 
-0.9375 1.397150445 0.3265506506 -0.9375 1.510637519 0.33356723337 -0.9375 1.2443542886 0.31671161701 
-0.9375 1.3728120804 0.31265938282 -0.9375 1.2808594465 0.30369656682 -0.9375 1.343786788 0.30361667275 
-0.9375 1.3125 0.3 -0.9375 0.097957363889 0.27196451139 -0.9375 1.3719018785 0.23720545539 
-0.9375 1.7870734692 0.2392428875 -0.9375 0.22448669872 0.29284242909 -0.9375 1.179025171 0.24015230446 
-0.9375 1.6341342926 0.23417582728 -0.9375 0.074416968226 0.18466292024 -0.9375 0.86146171692 0.20818860438 
0.8370269657 0.57446300876 0.12217838281 -0.9375 0.92642236948 0.14917739779 -0.9375 0.95935328007 0.14839957952 
-0.93715638103 0.88558365747 0.14042944458 -0.9375 0.98801625967 0.1408538416 -0.9375 1.1064626076 0.128270805 
-0.9375 1.01413064 0.12894861996 -0.9375 0.85346177816 0.12385912389 -0.9375 0.77342299748 0.14097963176 
-0.9375 1.0371240377 0.11175089031 -0.9375 0.83194828033 0.10657785237 -0.9375 1.8134189622 0.10706582934 
-0.9375 1.0538047801 0.094486523043 -0.9375 0.8140506506 0.084650449455 -0.9375 0.05927300714 0.07852229923 
-0.9375 1.0711708188 0.067387155443 -0.9375 0.79664615393 0.050516264141 -0.9375 1.0817520618 0.041125921905 
-0.9375 1.0863013172 0.016141860452 -0.9375 0.69440224979 0.031247037637 -0.93606602584 0.78920665803 0.022377185118 
-0.9375 0.78776490552 -0.0035673056756 0.14003463112 0.41869397197 -0.79271736113 -0.9375 0.055041678833 -0.0090054427666 
-0.9375 1.8192125201 -0.0076481530443 -0.9375 1.0866997719 -0.010926633328 -0.9375 0.7911965847 -0.031640575826 
-0.9375 1.081867075 -0.040720380843 -0.93700141574 0.80151304034 -0.06279118594 -0.9375 1.0673452508 -0.075302316063 
-0.93601602553 1.8172377845 -0.086825633111 -0.9375 0.81915614605 -0.092166915536 -0.9375 1.0474020186 -0.10169801157 
-0.9375 0.062794195488 -0.11111254022 -0.9375 0.83787596226 -0.11175089031 -0.9375 1.0296669245 -0.11834381819 
-0.9375 0.75228560968 -0.13758776535 -0.9375 1.0750266185 -0.15573734478 -0.9375 0.86734160399 -0.1322770566 
-0.9375 1.0048871398 -0.13367079645 -0.9375 0.97419581674 -0.14521015487 -0.9375 0.90290168124 -0.14567554801 
-0.9375 0.9375 -0.15 -0.9375 1.8050662279 -0.16056867689 -0.9375 1.4256628442 -0.18531198763 
-0.9375 0.85997145305 -0.20712164152 -0.9375 0.076297035813 -0.19324017763 -0.9375 0.56747358323 -0.21482516554 
-0.9375 0.99478599787 -0.23101629476 -0.9375 1.7827973843 -0.25282842815 -0.9375 0.28904322388 -0.27496637442 
-0.9375 0.099159018695 -0.27320559919 -0.9375 0.71898943758 -0.29417796176 -0.9375 0.5625 -0.3 
-0.9375 0.59378682375 -0.30361667275 -0.9375 0.53085942864 -0.30369656682 -0.93647547068 0.50141552532 -0.31315352865 
-0.9375 0.63097139597 -0.31685537696 -0.9375 0.47846177816 -0.32614088058 -0.93677401849 0.65602723634 -0.33281335819 
-0.9375 1.7506949186 -0.34229730964 -0.9375 0.4569483161 -0.34342213869 -0.9375 0.67496083975 -0.35114069581 
-0.9375 0.4390506506 -0.36534953713 -0.93661881886 0.14104971375 -0.3819923417 -0.9375 0.69187445641 -0.3740904808 
-0.9375 0.42515938282 -0.38968784809 -0.9375 0.70628291766 -0.40754993781 -0.93695710089 0.41734345376 -0.4129631432 
-0.9375 0.77903218829 -0.41236352793 -0.9375 1.7121406806 -0.42239446014 -0.9375 0.71167738438 -0.43892238736 
-0.9375 0.41330021024 -0.43907335997 -0.9375 0.18956676615 -0.46813224327 -0.9375 0.71089954376 -0.47185328007 
-0.9375 0.41414519548 -0.47215522528 -0.93620235607 1.6740603872 -0.48867971651 -0.9375 0.70557813539 -0.49836962727 
-0.9375 0.42198944224 -0.50168613543 -0.9375 0.78084977855 -0.54920764041 -0.9375 0.34867268761 -0.51677986429 
-0.9375 0.43622909807 -0.5304836267 -0.93563604127 0.2398721451 -0.5435032628 -0.9375 0.68045010567 -0.5426702857 
-0.9375 1.6294469118 -0.54739916325 -0.93620373239 0.46058642144 -0.55971082221 -0.9375 0.65991442304 -0.56373098393 
-0.9375 1.4701522961 -0.56455043997 -0.9375 0.6384095192 -0.57937442064 -0.9375 0.49402860403 -0.58314462304 
-0.9375 0.29025932498 -0.59976237974 -0.9375 0.61249533892 -0.59110960364 -0.9375 0.52177963257 -0.59436707497 
-0.9375 0.58465522528 -0.59835480452 -0.9375 0.55157335997 -0.59919978976 -0.14180371253 0.18380552898 0.55299946926 
-0.9375 1.5702402095 -0.61490141393 -0.9375 0.85761402041 -0.65008360888 -0.9375 0.52538415158 -0.67595807299 
-0.9375 0.67985020944 -0.66888113046 -0.9375 0.34537258744 -0.65421581268 -0.93570666158 1.5147164153 -0.67007296233 
-0.9375 0.42067712806 -0.71540403725 -0.9375 1.4346759658 -0.72905402931 -0.9375 0.48408570676 -0.75413876483 
-0.9375 1.3587796845 -0.7730815506 -0.9375 0.5514562726 -0.79302751422 -0.9375 1.2722969907 -0.81540183376 
-0.9375 0.65245424509 -0.83508435488 -0.9375 1.187991643 -0.84610937834 -0.9375 0.70948734283 -0.85265593529 
-0.9375 1.1012623129 -0.86718017649 -0.9375 0.79035123814 -0.87019935435 -0.9375 0.99139369726 -0.88040698171 
-0.9375 0.89229451561 -0.88125413495 -0.22786936323 1.4542133553 -0.9375 -0.89471929256 1.3358159294 -0.83521358293 
0.065116918666 1.2345331412 -0.70539124221 -0.10975538198 1.7546559922 0.7324164974 -0.78044024353 0.58037685855 0.2942876044 
0.72234676641 0.13946431328 -0.13453826433 0.1616485615 0.12531015503 0.52994871807 -0.88330897973 1.6499564777 -0.60701356388 
0.9375 1.3426817811 -0.044196472963 0.33992342992 0.13928621308 0.35360598649 -0.44617670849 0 0.22113352175 
0.79023090131 0.86059076303 0.080524422584 0.34241224497 0.59442589643 0.48068273237 -0.89389346722 1.7785205151 0.38707644451 
-0.89728754757 0.57747810128 -0.84998850669 -0.89667372176 1.4948159051 -0.73650743762 -0.89296081278 1.6002455096 0.64870250681 
-0.89371860654 0.14356096286 0.47725844366 -0.8963257505 0.25287251548 -0.62001702095 -0.89505932991 0.45695386383 -0.79043496554 
-0.8803935857 1.2877647902 -0.87106482764 -0.8915401248 1.656601389 0.58760993679 -0.89228212107 1.5153138097 0.72549168671 
-0.88971955309 0.21491321847 0.58621083498 -0.89431230116 0.075582948942 -0.33747628135 -0.88117358064 0.35495527373 0.73544754519 
-0.8837885261 0.1819773776 -0.55191356512 -0.89204121348 0.048840696066 -0.26714007428 -0.89251637455 0.052863304433 0.28008330443 
-0.81431908046 1.5643230545 -0.26633399385 -0.8890968469 1.8232847279 0.28684510364 -0.87472936756 0.16078684024 0.53697565895 
-0.87781365929 0.096487663543 0.42255760051 -0.90060394023 1.4210876754 0.78203075161 -0.88522640098 0.65988424437 0.89244251969 
-0.88277013302 1.2223610401 0.89302268028 -0.88244438643 1.875 -0.0094417826995 -0.8843365024 1.2166121684 -0.89290510329 
-0.88237785101 1.7815006256 -0.40760257244 -0.88180625039 0.90116074243 0.9375 -0.88195855021 0.94733682275 -0.9375 
-0.8815674305 0 -0.043103720248 -0.88084037304 0 0.039683576301 -0.88126845586 0.98383254732 0.9375 
-0.88897280425 0.52120431169 0.83248478048 -0.87976917028 1.875 0.06670082286 -0.87904644012 0.85819294453 -0.9375 
-0.88083819535 1.8731893545 -0.075955398201 -0.88630408099 0.37703255097 -0.74677820842 -0.87706225982 0.066661904426 0.35969016363 
-0.86683774685 0.28948570072 -0.69731478029 -0.87249520354 0.81102716521 0.9375 -0.87674971819 1.0370370269 -0.9375 
-0.88637052075 0.12725073937 -0.463848724 -0.87437616351 0.41228823641 0.78506621568 -0.87666913971 0.25691260857 0.65211176608 
0.53574600056 1.1873017115 -0.14545778401 -0.87149711858 0.62172869662 -0.89350584183 -0.87116736174 1.0776852965 0.9375 
-0.86672522927 0.77138296183 -0.9375 -0.87240853414 0 0.13205190611 -0.88467928551 0.59577052198 0.87009982207 
-0.87282301281 0 -0.13002229644 -0.87583880288 0.50407621785 -0.83796656411 -0.89610199063 1.8236314642 -0.26073088621 
-0.87714176846 1.7483693943 0.47963163874 -0.86586008101 1.7144836422 -0.5506928578 -0.86859682071 1.875 -0.1483540252 
-0.86263600659 1.7633307683 -0.48008508486 -0.85923558172 1.5497352256 -0.73728722064 -0.85242081263 1.5942612689 0.70638439694 
-0.8733118457 1.4082596326 -0.81989625819 -0.86357338428 1.1186430216 -0.9375 -0.86335803853 0.2917777904 0.70352963023 
-0.86308300495 1.875 0.18466292024 -0.85462438788 1.3125 0.6 -0.87292695145 1.283884862 0.59721439778 
[...]
CELL_DATA 34338
FIELD FieldData 1
color 1 34338 double
4.2668770204 5.4286634894 4.4604046388 4.1720101021 4.1984807644 3.3465715555 5.1680107876 3.3123846256 3.6200140673 
3.9087716463 3.339981907 3.1527098914 3.261441047 3.3329710334 3.2050080449 4.0967911472 3.343224043 3.187495209 
3.3308063422 3.766834375 5.7448627717 3.7572546704 4.0034711904 3.2585248109 3.1790405612 6.0046280432 3.4557472142 
5.2283874815 4.2132153579 3.3122239565 3.2148165892 3.5402292623 3.3258135487 3.2756370312 5.2032295331 3.4821340188 
3.4294350613 4.0396131096 4.3436031114 3.5977299216 5.5972084136 3.2327448466 5.9451248258 3.502571769 3.5488772555 
3.734742374 4.7170175658 3.2615595337 3.3283519925 4.6661772075 4.7473300564 3.312372909 3.5436270775 3.4912439129 
3.2180166554 3.0329376899 4.7339563205 3.462094356 3.0917799045 3.3846891017 3.1847708736 3.393210791 3.4665163971 
3.8363697102 4.8358312094 3.4142326016 3.7756156155 3.2570247185 3.285635087 3.8709522201 5.5003706571 3.4116197202 
3.7112754771 3.5933116653 3.5251855581 3.3047205786 3.5081901543 5.00227764 3.8918642144 3.3600936331 3.1717990095 
4.443576344 3.2710664069 3.4784027979 3.3748075497 3.5502359 3.1240872027 5.3490698515 3.0941066819 3.1913507405 
3.592689647 4.855801344 3.1960388052 3.2784737538 3.7421447406 4.0878084733 3.9355758272 3.4017143658 3.8397443653 
4.1713978822 4.9553443281 3.2463657893 3.6481737183 3.5224262232 4.3526779662 3.2674505145 3.8901638465 5.0729803291 
3.9611192757 3.6727409056 3.2597759854 3.3095977787 3.7684929263 3.5249007259 5.1291623868 3.448523733 3.2560917653 
4.8359544738 3.2970986505 4.7001180751 3.2101642199 5.0221343541 4.6841810313 5.544455224 3.1806243235 3.7891231502 
3.1599771935 3.2778037299 3.6352169132 4.5617209766 4.5506004061 3.4324091947 4.1162342639 3.2432425467 3.2923822293 
3.5557323155 3.7979710989 3.4334988091 3.1388276886 3.3464788275 3.268062923 3.055632606 4.2018574877 4.5949169954 
3.1585190091 4.3651463523 3.5932391857 3.2003309116 3.4768203354 4.1608486992 3.657194499 3.5150306392 3.543156404 
3.2214064985 3.3538524612 3.2611129388 4.3188863805 4.4692850087 4.7925994328 5.4706219619 3.4808862078 3.5311217005 
3.7889877795 3.7818109174 3.370867156 4.9287873365 3.8823901906 5.9977627251 4.2878604565 4.6358839454 4.3913551811 
3.8196498672 4.995626485 3.4654468543 4.4197948115 6.1170082322 3.7153751186 3.6999996683 5.3721345724 3.9275487976 
3.518528988 3.3620800119 3.9521470259 3.5979263331 5.2502618234 3.2545735006 4.8898316758 3.5558953888 4.7147858544 
3.0502652328 3.4285995827 3.29001205 4.706115629 4.1431048171 4.4778927424 3.2764129296 5.3973854965 3.4553709142 
3.7048430682 4.3335356754 3.6559472401 3.1091912582 3.6079960713 3.5649452981 6.6221334032 4.5389929499 5.016850311 
6.1210066309 3.4659668477 4.7979900797 3.707033425 5.6632100819 3.7437191969 3.763477093 5.2234643181 3.6330685368 
5.053802994 3.2073559483 3.313783095 3.5463206479 5.6941462717 3.4388187757 4.8827653175 5.0580854632 3.1422058626 
4.6373409093 4.0649106672 3.7743271357 3.674362319 3.8378365113 5.5312458318 3.6304487041 3.5552436076 4.1749261208 
5.2297393546 3.5241697702 3.266562894 4.9836617488 4.262642164 3.8580687952 3.2070607293 4.7727170514 3.7349384619 
3.8931374096 5.6850035665 4.9780848198 4.2645924816 3.9927820027 4.5315830107 3.5074077998 3.3566231649 3.2189882208 
3.5316308716 3.4833665779 4.3013722992 3.3899902414 4.6838123118 3.5115899259 3.3496363637 5.4692672671 4.9906156376 
3.1157357682 3.1213707212 3.7249730264 6.0762927888 3.512071294 3.2363696296 4.096130082 3.0721707214 4.1037936492 
3.2670606165 3.6610331336 6.7312004895 3.8629551089 3.407536858 3.6379120345 3.604166741 4.0864389687 3.719825183 
3.5551049409 3.4627670029 3.8413401727 3.2224795328 3.9192331966 3.2944454996 4.5468053495 3.8449215799 3.0948321204 
4.7691625808 4.2281284557 3.8407512868 3.5431947571 3.6112591336 4.5099093245 4.6821222988 3.68289508 5.3762836542 
3.2684328252 3.2847061961 5.0816919861 4.3156935118 3.8886371368 5.4303036174 5.0882289585 6.6237656578 3.5409901525 
4.5417638641 6.4525178399 4.7882579881 5.2573722584 3.5203398735 5.3509393664 5.4213824546 3.423916846 3.893268691 
3.1794661202 3.8968845587 5.7281900572 4.80636496 5.6664482167 3.0859210096 3.4848999657 4.9478555116 3.614511211 
3.0590568346 5.0140181128 4.9322246673 5.0441211764 3.3618115013 4.4189066777 3.2997860397 4.2668236135 6.3579357792 
4.7292681659 3.2423268885 3.5806116784 4.6057134998 3.4984050714 3.1692413402 3.2789928707 5.6117517481 3.5297911353 
5.4794976063 5.9606465158 3.4890986269 3.3648847707 5.3213813252 4.7390928412 6.3757412099 4.1001046281 4.3769107584 
3.4005489857 3.8962728355 5.0124233244 3.0985662751 4.7157086005 3.4576670419 5.865159449 4.8353961768 5.3542716101 
4.8276426273 3.7297054221 3.4506159184 3.2188429562 3.3717560475 4.7979255643 4.4696065587 4.5842108576 4.3642824762 
5.5648990713 3.5408199135 3.3116650237 3.1366080414 3.7072926978 3.7101271416 3.1837734323 4.7027165101 4.0553041898 
3.4733206674 3.7293417658 3.3876418589 6.5789408816 3.258793377 3.9154927445 6.0456708558 5.727703201 5.9991576972 
4.0536800438 5.4568199451 3.416482837 6.1639015566 3.8401647322 5.5158439878 3.7796599023 3.3236594166 3.204216577 
3.8581217644 3.8347745794 3.8179795583 4.6464069476 6.509725943 3.3773807007 3.6386735032 3.1563994467 3.4334460143 
5.1416395414 6.0817243508 3.3778468762 3.3924022693 5.7201343567 4.17339382 5.0745652241 4.5680388223 3.9158376759 
3.3176921989 3.7255366364 3.244987891 4.16611467 3.32081184 3.453099054 3.6177038107 3.3779375674 5.7795590552 
3.0536163018 3.2275555747 3.3098301968 3.5549191259 5.1726659364 3.4376081724 5.2982437267 3.668554051 3.1696112168 
3.8062030505 4.6431195992 3.6715661504 4.0294882922 3.2406232791 3.4387473085 5.2771414244 3.2492595802 4.1792116951 
3.9095473478 6.034150135 4.5429400792 3.7228296255 5.1185622864 4.9454015462 5.5496216038 3.078946093 6.2540790933 
3.3860266572 5.6371947692 4.5442536725 4.9529107626 3.3943147725 3.208397779 3.4804504864 3.5422402623 3.5213124441 
3.1349106609 3.0728213278 3.6494646313 3.3582402405 3.3257358076 3.2738059764 3.3939368534 3.3392033613 3.0298382239 
3.4602399559 4.9336833412 3.3331388964 6.2227326271 4.6680377191 6.2566831411 3.4430885947 5.4025210812 3.7937533361 
6.3031932982 3.3109055514 6.1806459074 5.0890541017 4.6156924795 5.3838739616 6.3616660678 3.1512276857 4.0124518203 
3.2665163723 4.1473208911 3.6246988782 5.0428060536 5.1557511294 3.2342707028 3.1268611257 4.0661738142 3.6660216674 
3.3216484479 3.2389117271 3.3744967119 5.2761751 3.5302628496 3.521339835 3.3255582234 4.0070070361 3.5126975346 
3.9358974697 3.5587864484 3.945223311 3.299086274 3.4281008823 3.2612968933 3.5762082048 4.2055867591 3.5295415009 
3.3625025702 3.8055774493 4.4663232746 3.0607153292 3.1265296198 3.5086977965 3.1204997463 3.4353474492 5.0381891628 
3.8919695925 3.5442368779 3.1462989605 3.4594442115 3.6913816359 3.7431407338 5.0943413384 3.4281608132 3.3549088764 
3.0831952863 3.3045991682 4.512122941 3.1715189149 3.3405902612 3.3967413783 3.5261095189 3.2264973442 3.3340701944 
3.5370581656 3.402250331 4.9707043197 3.542826881 3.323322494 3.2700009612 3.1830668755 3.5036908888 3.3332565163 
3.4082934977 3.2515470293 3.2590004351 4.02845491 3.14558411 3.7638621706 3.4361567626 3.2100985719 3.6972892421 
3.2519287431 3.3872865104 3.0902639433 3.2293373069 3.9488350369 3.2953254724 3.6040677886 3.5306363726 4.4471890439 
3.4524785844 3.7757548013 3.2421556285 3.1732297419 5.0668897071 3.6161396338 3.7334186304 3.2138916823 3.2528199249 
3.538185416 3.5708534411 4.3786069413 3.1400792211 3.3277669342 3.4626768291 5.545969897 3.1868906135 3.170144727 
3.371049392 3.3219203475 3.096487373 3.881155039 3.2006770429 3.2555216672 3.8079115572 3.0789564871 3.2212859254 
3.2419274915 3.2428645726 3.4106498535 4.2846657205 4.7917965777 4.1260805212 4.1489329107 5.0733544699 3.9478986752 
5.4658917453 3.5955701945 3.8006735529 3.5819424912 6.2821364056 3.4980104087 3.6606153178 3.6652557829 3.7232143889 
3.5870101985 3.8922795957 3.6906081714 3.4350663704 3.169229543 3.3242678869 3.1836538341 4.0346406936 3.5870718569 
5.2493180367 4.7776653003 3.195209445 3.5816651603 3.9557510439 3.4603877525 3.2147176193 3.8658616469 3.7433478937 
6.0452673798 3.1830311034 3.6392782828 3.2631821711 3.7703846049 3.6808209881 3.4567857029 3.475294753 3.2341081025 
3.3390618513 3.194731664 3.3604849631 3.4094969762 3.2788635196 3.5777482089 3.2052184146 3.4899572395 3.2847169517 
3.267448367 3.2497952389 3.1800298659 3.4611190677 3.2777181914 3.2251129704 3.1921410421 3.6477270894 3.2934404202 
3.1343758828 3.2521224552 6.3588172379 3.4942345981 3.1248554523 3.6371961728 3.3810815299 3.3374659336 3.1906056113 
3.2188354259 3.4016925538 3.4680308381 3.2744935384 3.1209021798 3.6769745286 3.4519011907 3.3906054803 3.142618967 
3.0932276275 4.6317763626 3.5715878622 3.6318961891 3.5847119897 3.4876864886 3.7079667022 3.3586434563 3.4555342198 
4.6998018446 4.4347943591 3.4279814432 3.5684596261 3.6470939058 3.3667467612 3.3018409876 3.7594879075 6.0540341381 
4.3895836069 4.6203630363 5.633615609 3.2619355421 5.4362894571 3.5681914664 3.6161146602 3.3779226715 3.6992128899 
3.7942715965 3.8957872131 3.2440997409 3.5571935068 3.3201958544 3.2406523496 3.9117065758 3.2814154844 3.3291998141 
3.2405228871 3.8159125439 3.5675512297 3.3514309372 3.3329538921 3.4576746497 3.5251863399 3.2676759612 3.1559334418 
3.2253961585 3.7390370938 3.6218850808 3.7925992469 3.0876907166 3.5994817731 3.6634568364 4.7437523417 3.2463771781 
3.1886435866 3.1437304242 5.436324615 3.3370226746 3.4844149034 3.1582834075 3.194190677 4.9835781657 3.1842251686 
3.2161868358 3.5514683185 3.5823025832 3.8251957804 3.320197353 3.2985830926 3.2968803472 3.7818818365 3.5589659849 
3.6639064591 3.196695791 3.3406848912 3.1304603103 3.2679102195 4.7148235723 3.2752843746 3.0373652601 3.5132469973 
3.5655085916 3.7188507564 6.4995679558 3.4644243718 3.2172864528 3.4027851183 6.0290220241 3.4387651299 3.8374384549 
3.3309393352 3.8476579289 3.9263916699 3.7472341227 5.2329819166 3.9819265087 3.986585057 3.6126079505 5.9001736292 
3.4978339767 3.5757042219 3.5069084409 3.3135618941 3.1607720714 3.1133906772 3.3412675887 3.262445052 3.2919798531 
3.2530253631 4.7954340563 3.3708993232 4.0172883828 4.5218649853 4.0163056204 3.5685173198 3.6998009463 3.5552862983 
3.27143018 3.1126158161 3.4442702183 3.5027103405 3.4603505745 3.5341907834 3.5539131643 3.5739054092 3.7863000651 
3.5219441876 3.4390961212 3.5441353183 3.5340859394 3.3752335982 3.3285366327 3.7251797834 6.3984250166 3.2121513883 
3.6227020812 3.100072041 3.5274906749 3.605544353 3.7518760564 3.6137408401 3.7900844058 5.0117184734 3.1793662457 
3.0961233196 3.2388495513 3.132193346 4.2182732608 3.0676645432 3.6054589092 3.4966651052 3.2823269077 3.4934562435 
3.8219553116 3.4985782814 3.4494464444 3.7264108438 3.9093784151 3.2872085309 3.673998076 3.4337887762 3.3044759096 
3.9616517 3.4043019896 3.3525232102 3.7261657208 3.6025874396 4.0778504278 3.3127269811 3.4602396709 3.5103498827 
3.306749098 3.119256214 4.1643500449 3.1576161143 4.1507060326 3.7040972218 3.8756231603 3.2379726883 5.0760740658 
5.5861807649 3.3109831021 3.5620501875 3.6170772751 3.8014055585 3.2033105662 3.986201477 3.4097213038 3.2350893415 
4.7699461604 3.583202968 3.2849280267 5.1223060465 3.1544959589 3.9509867852 3.314332396 3.9675312677 3.3770021055 
3.272378392 5.585223751 3.0601686952 4.1975069908 3.1461936654 3.3182348588 5.7343327778 3.1125051179 3.1329333215 
3.51250697 3.2347813364 3.4071104532 3.4275274151 3.5628202002 4.9499829728 4.5331631745 3.2435914062 3.2725085332 
4.1938078244 3.6271187093 3.8653575393 3.4806831788 3.7488171181 3.858631926 3.2763089239 3.3704846869 3.529529013 
3.4703798196 3.5877102487 3.2010245622 3.8431735544 4.085631987 3.3507499873 7.111132546 3.1831502649 3.4688183972 
3.1198557847 4.0441472263 3.5879515371 3.1973422331 3.3739563119 3.5129213467 3.1985330716 3.21324438 3.0891922692 
3.2204837757 3.2068183096 3.685235548 3.4084752563 4.7138426655 4.3288679073 3.2760646603 5.5923575909 5.6267017494 
3.3273493324 3.2536342868 3.1460285193 3.279103857 3.8888828075 3.2237831181 5.6991474749 3.3776198344 3.2516435554 
3.4730622811 3.0544661871 3.9356273793 3.285195235 3.0444445569 3.2666137577 3.5938006684 3.6268196003 3.2655097977 
3.4218805138 3.367705352 3.2224299911 3.5669575146 3.4529318377 3.2320193213 3.3159124511 4.8443644987 3.2159927899 
3.4050434886 4.2166702383 3.9822757965 3.2928126185 3.3688789389 3.116959291 3.3078251785 3.2286411626 3.4283309572 
3.4076488327 3.4289046595 6.2375221767 3.1951091851 4.2749569036 3.3452305764 3.2716296239 4.5944330643 3.8223964023 
3.5297251261 3.5974058572 3.4188865153 3.6641806062 3.4364490856 3.6237284599 3.6795159204 3.3467712263 3.8268667898 
3.2355722685 3.1976930087 4.7402890737 3.2025274504 3.0810768351 3.6653212091 3.4110877741 3.6285522325 3.1681960676 
4.0927666182 5.8890369071 4.2939615422 4.1909165504 3.3449726656 3.3304252629 3.2536796923 3.8516559504 3.6315760142 
3.1767383507 3.0766832352 3.9608347128 6.4451822368 3.5741598606 3.2722153583 3.3508501664 4.9691665378 3.191919444 
3.4410425117 3.9210772095 3.0632297841 3.6194042076 3.2209010884 3.1999740621 3.3988778282 3.5826855137 3.2408515552 
3.1814960237 3.6794984985 3.8479323018 3.7876742949 3.4182003673 3.3523584769 3.2322310922 3.4444350189 3.4984618549 
3.6978085169 3.9125723248 3.9287033141 5.5909760838 3.9109795634 5.8731808362 3.5518432064 5.7262398106 3.2708009574 
3.7090248307 3.2689533981 3.6552919727 3.2490109926 3.3480269801 3.4024120868 3.3056262416 7.1410669631 3.694289408 
3.4217013919 3.3247605773 3.2222924149 3.4457789756 3.1086936854 3.5125677017 3.2411360177 3.0866392431 3.212388165 
3.3530256652 3.8608048767 3.0706726448 3.1114003565 3.3069407651 3.9983040781 3.1758509095 3.2261291418 3.4373387302 
3.458460923 3.4541602765 3.3233919298 3.4057315121 3.129646757 3.348995514 3.486031694 4.8571922808 3.4051472548 
3.5364968094 3.347148998 3.1133223185 3.2130364384 3.3353551755 3.5499297413 3.3479929523 5.5352563346 3.4060005078 
3.6529819301 4.5576161025 4.5138690414 5.5969239424 3.4268504717 3.3368887447 3.548446775 3.4220397518 4.949819072 
3.4850525857 3.2195911444 3.5229217638 3.2076952794 3.1898312275 3.4021052144 3.2600531624 3.3021264718 5.6813735524 
4.6192306529 4.6824417878 4.8946149854 3.3298270292 5.3453194884 3.3547264347 3.8381648154 3.5219661522 4.5020939766 
3.0340306461 3.2138598545 3.5992232147 3.7842802833 4.8009181752 4.096448136 3.7662808195 3.7046078042 4.1374995837 
3.8349529315 3.1381235351 3.5341124509 3.2686085565 4.4494181403 3.4654799117 3.1330456017 3.2372722252 4.1369690054 
3.703949481 3.3086073484 3.3844502669 3.6215535525 5.6930111862 3.1750896089 3.2267212327 3.1248775372 3.4273818716 
4.1139460657 3.397149863 3.4994327751 4.5299767383 3.2882644086 3.5130418677 3.8087101845 3.3462882359 3.5682568012 
3.1932388857 3.2790032534 3.5455865741 3.3820988986 3.3134900077 3.4241480329 3.316394515 3.201838292 5.7341241809 
3.6680809117 3.2898600776 3.423793581 3.4534894524 4.3521547579 3.2965798649 3.059788182 3.9966477726 3.3934860166 
3.3502680323 3.1944663775 3.1096406314 3.4764009514 3.5524094617 3.2569380406 3.5900548298 3.2189957266 3.7827025751 
3.2839319488 3.6068763077 3.3712270284 3.4926867837 3.3023400252 3.425288656 3.7142801599 3.5706888412 3.9023066827 
3.2998692092 3.2670095948 3.5992849891 3.4660737514 3.3304566155 4.6021131479 3.1863956162 3.2409694403 3.30129985 
3.2018274211 3.3329569764 3.8466040051 3.1008036801 3.3082979813 3.5195437743 3.3360346729 3.7996655364 3.2934952099 
4.1258268714 4.3578300061 3.3418158801 5.3660732424 4.7079745337 6.9785023542 5.1941524758 3.5978608429 3.3057504943 
4.2515591557 3.2903345672 3.9464998627 6.2440046968 3.5585566071 5.5031177996 3.1270276478 3.4062650016 3.4081579482 
3.9795669556 5.2079332753 3.8606938946 4.0244887238 3.2359674074 3.4767429823 3.8320357712 4.1991822427 3.2787704619 
3.207000648 3.590372382 3.5730843631 3.2905077946 3.222453468 4.1438313774 3.4659844511 3.2657476209 3.2231688265 
3.4366696676 3.5270192189 3.3943790288 3.261893756 3.1061067561 3.1333287736 3.2437508558 3.2600137719 3.306659224 
3.156663444 3.3558702389 3.3082144311 3.7171056017 3.2369434847 3.3989852238 6.0842818624 5.8047326715 3.1812557454 
3.3476309956 4.0073721975 3.7737710636 3.3759836784 3.8954696971 3.0639343097 3.3290273237 3.2640135214 4.8662240621 
3.5129288008 3.1952985445 3.6667820638 3.226327384 3.0753083954 3.1629369726 3.2100235211 3.2094524276 3.1389152101 
3.6583262406 3.5142313675 3.2281851095 3.2407670563 3.1754292793 3.3998679944 3.7969832204 3.5670876387 3.3862040988 
3.1129903576 3.9518132627 3.1037865549 3.530137309 3.3392472653 3.2985539649 3.826315999 3.1860210863 3.4117784257 
4.2144841973 3.7530136257 3.2821791046 3.2740083071 4.0479060296 3.6035028649 3.3341309815 3.927198873 3.2129447684 
3.4049115073 3.3396841585 3.2505209272 3.4482240832 3.5440616354 3.6004664503 3.7779404571 3.2089201713 4.4086501964 
3.1754765137 3.1290559736 3.6661913654 3.4755088748 3.5364835826 4.5394523861 3.7901673245 6.1708629185 3.1507516941 
5.0690787799 3.5193785825 4.1052394498 3.2654810791 3.6429267442 3.9288464565 3.4813290347 3.4419524622 3.1999199093 
3.8055734744 3.3265440895 4.5644260978 3.2896104404 3.2420143686 3.2645020111 3.4136669492 3.1435271367 3.2660321983 
3.1740197807 3.5549838345 3.3753090905 3.2852994342 3.2982548893 3.5380091541 3.5096731357 3.6202076434 5.1693683186 
3.4445938844 3.3757285235 3.2340189838 3.4839098562 6.0189812736 3.3376212845 3.6843944247 5.3427728295 3.2781308297 
3.5713592474 3.2707635095 5.460139697 3.1916612607 3.4991926674 3.2854781998 3.2923046419 3.2482708497 4.2421570364 
3.2549932647 3.151261573 3.3626734885 3.5722526082 5.8953338333 3.5565576839 3.4250513907 3.675573318 3.0892561758 
3.6127325413 3.1456786037 3.4559440702 3.1097805249 3.2322407351 3.4585069929 3.278764737 3.9459504221 5.2890374225 
3.5436604661 4.2651316611 3.4173300219 3.9552146399 3.2946867699 3.3726460679 5.0754115435 5.6269999164 3.5870418595 
5.1120418514 3.2010061653 3.9475353968 6.2603827379 3.3510044459 3.4642372555 3.3742501281 3.2851479906 3.6485140798 
3.226573581 3.3508195546 3.3339227992 5.5459391626 3.2460739433 3.6710667144 3.6166453661 3.643587646 3.3436713429 
3.3005571404 3.2084780489 3.2321958586 3.2183471517 3.5010767918 3.3079671109 3.4261197167 3.4449853507 3.6589893519 
3.2271694402 3.3379559787 3.7293372624 3.785200961 3.4533127194 4.4123728093 3.1459444152 3.1364748632 6.5005620949 
3.1681313705 3.7758041556 3.5343583735 3.4228358802 3.2021347663 3.5351489527 3.3211109044 3.5055981818 3.4863431353 
3.3263695477 3.3633091045 3.5407821554 3.9073819532 3.681138252 3.0884641134 3.1977112508 3.1715149039 3.3958384355 
3.6130924491 3.7324881946 3.228135128 3.4303502589 3.3482458435 4.8397771337 3.243182047 3.259384345 3.2424986275 
3.4729503052 3.5349459296 3.3012856232 3.3587983318 3.0954774986 3.3311796541 3.394557062 4.8325064644 3.5113441825 
3.5178677111 4.6329828618 3.5976320687 4.0134831563 5.6231285327 3.6357879564 4.2121081978 3.5083128425 4.2445701258 
3.2585020645 3.3955472304 4.6008142672 3.291059638 3.1400771807 3.2747513158 3.1151471696 5.6422490698 3.4688244485 
3.3627997567 3.2498575716 3.5665065824 3.3546544828 3.3090836794 4.3284952611 3.3623492838 3.3464226544 3.1498958895 
4.0154950447 3.2916238116 6.7419989299 3.3306570854 3.1884692038 3.0757271072 3.0975343781 3.6758054529 3.859524244 
3.3757833121 3.3636380718 3.1691071422 3.3159450718 3.2735201242 3.2578686906 3.2554430989 3.4972000978 3.4782248596 
5.6149161734 3.5660792449 3.3673895996 3.3901079365 3.4091513494 4.5679995955 3.5424988358 4.4900987837 3.9508267651 
3.2653118997 3.3889816863 5.3395334551 3.1806435913 3.8835385781 3.7764241608 3.3711124138 3.6493818823 3.3239122039 
4.0676601097 3.2178386215 4.1309422587 3.9054145525 3.6315429577 3.2888494809 3.2737899351 3.0878603816 3.5486447528 