# vtk DataFile Version 5.1
vtk output
ASCII
DATASET UNSTRUCTURED_GRID
POINTS 13954 double
2.0434515805 0.24565917982 0.37267723582 2.0268321488 0.27820276543 0.36847760238 2.0601833344 0.25274215043 0.37165749073 
2.0437252954 0.28957294559 0.36572331467 2.0599260751 0.23304592275 0.36812022271 2.0234027863 0.24376745224 0.36801800728 
2.0297332751 0.22252342372 0.36321403595 2.0855146056 0.25756080633 0.35778199932 2.0711162953 0.27451575524 0.36265693706 
2.0050455413 0.27157133988 0.36167888271 2.0411934535 0.20399904579 0.35478640107 2.0823978011 0.23527105129 0.3569328157 
2.0082369695 0.34641768137 0.35609299699 2.068886059 0.21198482963 0.35085457861 1.9716311147 0.3581963301 0.35186691485 
1.9675318048 0.32526494345 0.34823300843 1.990189791 0.22146135086 0.34508102041 1.997297759 0.39843869949 0.34126009703 
0.33367781144 0.22629268308 0.34101086918 0.29665050108 0.27830815259 0.33972789904 0.2490720333 0.35827390224 0.34021165537 
0.26410493964 0.376384225 0.34151248932 0.30689764984 0.30515739411 0.34151248932 0.35616346951 0.19144201085 0.33950571417 
0.37267150879 0.20071125031 0.33964800835 0.22584352493 0.40386912823 0.33964800835 0.24123916626 0.41338369846 0.33964800835 
1.9736050342 0.24303676362 0.3371559058 1.9524498506 0.43840387865 0.3400822614 0.2574379856 0.3082074276 0.33263525251 
0.33525099754 0.19240868092 0.33592073917 0.38267879001 0.22017200466 0.33522624265 0.35919640577 0.25679330447 0.33594486721 
0.21707692146 0.38362799883 0.33592073917 0.26326375008 0.41217169762 0.33592073917 0.30865632794 0.34345512094 0.33438263667 
1.9708997793 0.27565156215 0.3404614434 0.37404652527 0.18177393928 0.33163273028 0.22310745221 0.42068577214 0.33283707246 
0.26406589212 0.43875604479 0.32227411536 1.9174102783 0.46252506971 0.33302323818 1.9090461731 0.44066040516 0.33227300644 
1.9495180895 0.32062263747 0.33531113595 1.9322425842 0.47269707918 0.33191325665 2.0149466991 0.17087414545 0.33686185426 
1.953543663 0.47118250132 0.32894074917 0.35620572948 0.1608504238 0.31990558716 0.39345086072 0.18514449591 0.32264310093 
0.24448844069 0.44218657413 0.321026719 0.33235681323 0.15904388512 0.31824526388 0.40935193643 0.20703861449 0.32017220382 
2.0536203263 0.34589304582 0.3346938516 1.8704194047 0.44541469338 0.30560313415 1.9182331986 0.47985473425 0.32420595092 
1.9567217263 0.27546337293 0.32708551903 1.9169016323 0.36851602277 0.3237441449 1.9567972119 0.50142178584 0.30621305555 
1.9485078009 0.30019676091 0.32581264115 2.036981599 0.25452829445 0.32166843235 0.30076588531 0.21262031866 0.32435695979 
2.0528401979 0.26302100827 0.31919100931 1.9629073096 0.21265451595 0.32532826078 0.30003174756 0.4010578554 0.32016904346 
1.9597243549 0.24356251145 0.32343533431 2.0334843803 0.38364517096 0.32594780753 0.38143699169 0.16931442022 0.31914300919 
0.21707801819 0.43526594639 0.31914300919 2.050062561 0.24427747726 0.31881000996 1.964487615 0.13097382619 0.31215149992 
2.0199853475 0.25393490265 0.31663369297 2.0184383604 0.2868078872 0.31707466773 1.8877444101 0.47286517438 0.30553981941 
1.9296514998 0.32942494016 0.31713139319 2.1006840236 0.31392941071 0.32342544681 2.0553458522 0.27937439252 0.31378992764 
1.9377193792 0.51042547732 0.29587369808 2.0813877673 0.34040210564 0.31291094558 2.0261141723 0.23152526012 0.31293334367 
2.0262945695 0.31122586333 0.31185584212 2.0549130667 0.36348358066 0.31856579778 0.26629122644 0.25915572953 0.31989813973 
0.34136584621 0.3280839911 0.32108159258 2.1657205656 0.24646598171 0.30605779397 1.9559662967 0.26463100214 0.31266203663 
1.9457009373 0.30079444012 0.31228268403 0.2352283945 0.30477685994 0.31799792439 0.17564504524 0.3725155862 0.31052685952 
0.2810370136 0.22284412073 0.31506810302 0.31887887922 0.36482243407 0.32113947451 0.29310128103 0.15171163994 0.30053767117 
2.0101388004 0.4304389008 0.31527181927 0.20305658776 0.34487144652 0.31541773292 2.033643088 0.21025307614 0.30121881758 
2.0586445325 0.22965719488 0.3061375969 2.0861710348 0.26172861123 0.30109414122 0.30239090113 0.44894725254 0.30340060654 
2.0270347531 0.41113673574 0.3110713385 2.100269167 0.32724670217 0.31171298342 1.9559640884 0.23766827583 0.30840275288 
2.1970415007 0.26590623657 0.28917434277 1.8959344747 0.36686756498 0.30694130853 1.9310989784 0.32822919219 0.30531855638 
1.9421601788 0.1938150747 0.30446170624 1.907806874 0.49332978798 0.30160995485 0.17430694597 0.4119176863 0.30584845876 
2.0483927069 0.37490758026 0.30459454793 1.9850157921 0.46379967607 0.3148797109 2.0720062731 0.34769424673 0.3044675981 
1.9623814527 0.26943203995 0.3032228322 0.25863620377 0.24495816745 0.30386153435 0.24111219728 0.2774380778 0.30544801151 
0.34203018697 0.35118867908 0.30651171669 2.1456485132 0.22251361864 0.30662925629 1.9635249675 0.37257828571 0.30000836419 
1.9974878432 0.2181536261 0.29758561333 1.9396605704 0.16650553718 0.30509428375 0.26786169386 0.20709439572 0.29735595268 
0.39480812663 0.28996511012 0.29831118736 0.21338087927 0.30849867622 0.30142817028 0.33092459597 0.39060394362 0.29923459321 
2.1486382458 0.30570511531 0.30207776363 1.9614479065 0.23915162683 0.29902024269 1.8793637719 0.38917424832 0.30463001355 
2.067533257 0.16740651137 0.30379103848 2.0363072552 0.3954464298 0.30140892697 0.18252899005 0.42866839989 0.29883478494 
2.0172655473 0.4502366841 0.29684089163 1.973711116 0.26854842748 0.29801240654 1.945203013 0.20572220662 0.29767986821 
2.0642319141 0.30312397481 0.29749072304 1.9593573209 0.29892872756 0.29859866705 1.9111280025 0.34841186741 0.29929438781 
2.1037973099 0.32995941088 0.29752230357 0.32769113065 0.12114708068 0.29038970651 0.42054483367 0.26036212552 0.30095910991 
0.27723395109 0.17603888489 0.29785007886 0.31854205083 0.41514106093 0.30368316768 1.9856396911 0.40191298431 0.29099929087 
0.29603380577 0.48482003992 0.28974417561 2.0461352177 0.36838467497 0.29722355331 2.1001898197 0.19548305703 0.31103881906 
2.0655974471 0.34252532244 0.29459712671 1.8661865511 0.37658363411 0.29173003963 0.25640086453 0.24793295955 0.29316439925 
0.36771615604 0.31549952048 0.29412839412 0.34237679538 0.35542069631 0.29517146767 0.23236386359 0.28781938712 0.29278663704 
1.9701447566 0.24637521673 0.29474568427 0.26423950652 0.33500522072 0.29142674536 0.27292516405 0.35882788098 0.29296784594 
1.9644471674 0.40743312178 0.29612356779 2.048928843 0.32471797058 0.29637354573 0.34794166601 0.23596248216 0.29303252851 
1.9443948086 0.41947120712 0.29336241699 1.9364635034 0.3398087214 0.2904409946 1.9823622512 0.22921727112 0.29257163015 
2.128749742 0.32259668708 0.29684887842 1.9213651515 0.16758716008 0.28761438339 2.0428389943 0.35850286975 0.2917298015 
0.34814610641 0.21025070875 0.29175790412 0.3677048189 0.21488036134 0.28868323146 0.23719184331 0.38692293624 0.29125624001 
0.24877421591 0.3986818477 0.2907121291 2.0944070922 0.24226681734 0.29062665499 1.9482762282 0.34810435215 0.29119333212 
2.0557956943 0.33750736984 0.29129700382 0.26641344879 0.19252005275 0.2894268609 0.41555514168 0.28021661246 0.29080195961 
0.18678166988 0.32602916161 0.29521176857 0.33022531134 0.41147314287 0.29337511433 0.43488091596 0.19119875452 0.29684229495 
2.0256453613 0.39872658011 0.28874003879 0.26449282851 0.22201130182 0.28933307957 0.38380697609 0.29963342745 0.29102917599 
0.2169365573 0.30257717015 0.29017645804 0.3342800617 0.38051199423 0.29038945552 1.9514336937 0.21163467453 0.29220056981 
2.0225693346 0.43426573143 0.28798676582 0.3294303406 0.20706391828 0.28604450613 0.3701791445 0.23443986599 0.28588020804 
0.26455025673 0.39681439996 0.288656497 0.22584112821 0.37264547289 0.28538227983 2.0957836837 0.32670273127 0.28822505835 
1.9158040283 0.35115753996 0.28937418634 2.0062817608 0.48415589975 0.29100240718 2.0454130397 0.14158875442 0.29421013955 
1.9299865538 0.43780201749 0.28742977221 1.9245153427 0.42545280457 0.28732099533 2.0823732265 0.16969250255 0.2880794181 
0.35728333956 0.197598864 0.28537332869 0.23333383123 0.40467367151 0.2840113248 0.2825954803 0.10064571208 0.27432169511 
1.9436785843 0.4455924751 0.28778474267 0.33269059451 0.18241662615 0.2757639156 2.0152256647 0.40238774285 0.28248845295 
1.8854725587 0.36379839782 0.28923454127 2.108219576 0.18509090041 0.28708199533 0.3578030891 0.31994460859 0.28642120029 
0.25762662011 0.25810246122 0.28570904224 0.33898631519 0.34902492922 0.28502167834 2.0868528858 0.31671175527 0.28499955003 
2.0189592377 0.46931529423 0.28491519037 1.9565717697 0.44841015339 0.28429574966 2.1324783047 0.32602765081 0.28332493641 
0.12613373341 0.38468642582 0.28309817347 0.29328179129 0.51577793472 0.26605909958 2.0909557167 0.30256136963 0.28419066364 
1.9133473187 0.13999987222 0.28481471599 1.9167720494 0.39165074701 0.2783320019 1.9307341695 0.18281277452 0.28715757814 
1.9312245244 0.3699061741 0.28478854465 1.9592033232 0.2099599921 0.28341323882 1.9122163775 0.43701631262 0.27771766417 
0.37910554579 0.2040013947 0.27878395287 0.24931603565 0.42281886826 0.27454476694 1.918303264 0.359498621 0.28234811858 
1.9879304607 0.17907711922 0.28362556704 1.9317273524 0.45656648636 0.27964707975 2.1405194344 0.20252149377 0.28855300617 
1.835300345 0.38727365323 0.27937085285 0.26290975482 0.19067292824 0.27798273412 0.41944157667 0.28406001835 0.27717103872 
0.18908462383 0.31906865559 0.28346440532 0.33359190032 0.40881965324 0.28297359229 0.26912627957 0.22558350323 0.28021764846 
0.38221907335 0.29513268541 0.28119413419 0.21482798851 0.31104164913 0.27891841179 0.32919155139 0.38453321609 0.27800377478 
2.0161868481 0.43268273467 0.27664845318 0.46182731848 0.26679377701 0.27683783375 0.33780260102 0.46648397083 0.27794670668 
1.9538770856 0.46536370319 0.27317991605 1.9675486452 0.19205616195 0.27692157138 0.4512469402 0.24318442719 0.29199587867 
0.35757064167 0.30776103501 0.27848499616 0.33494584271 0.34058333853 0.27953174793 0.26903419922 0.25560936498 0.27848217628 
[...]
CELL_DATA 46355
FIELD FieldData 1
color 1 46355 double
3.6779984373 5.0733281274 3.8508592694 4.6564446318 3.4107677035 4.3004356692 3.6913838093 4.4849876079 3.4819421602 
3.772310483 6.5966236002 3.7431667767 3.60982121 3.8781551654 3.3386734388 5.6899642618 3.1768337168 3.9533986931 
3.8918304127 3.5362242596 4.3838998372 4.3522799921 6.610764757 3.7407947584 4.5975082122 3.6170922917 5.3934521208 
4.4184470664 5.9790640115 3.9400097263 3.4147174289 4.0548559953 5.218432776 5.4512481032 3.2049584624 4.096113424 
4.0152175888 3.330499135 4.0715973891 3.8531238932 4.8075796441 5.7694934162 3.2205287006 4.1721454021 4.0700557275 
3.5324439208 4.3485736556 4.8386091509 3.9965996434 4.4722067593 4.2517898715 4.2872167339 3.6099547277 4.5934611508 
4.3234963687 3.5172166619 3.35243452 3.9769272032 3.0608836475 3.7912197709 3.8499238518 4.7295387172 3.6117348716 
3.6600641043 3.4937997079 3.7810453984 4.1256364227 3.9244271343 3.4869920862 4.005586313 4.3625856291 3.5938326309 
3.1451918871 3.425358492 4.442734657 4.3228204101 5.5096187905 4.1948965693 3.870398096 3.6506699453 3.6763634302 
3.2015531202 4.2077721724 3.9117109506 4.1314425114 5.7172695176 3.3322254884 3.353974578 3.7761847728 6.0604251333 
3.5824801329 3.3852218778 3.2275293168 3.8448837266 4.1772269898 3.631076868 3.5716199039 3.0717406693 3.9082405497 
3.4762479395 3.738157868 3.9171937004 4.6393580269 3.8630247278 3.1403172041 3.2630891522 3.7634727734 4.5718987767 
4.0517985354 3.8781756253 3.3045934696 3.5156418861 4.3121593329 3.5961871159 3.2999785693 4.4755368543 3.4802145562 
3.484453383 3.26982437 3.4431951779 3.334437052 4.6857936241 3.6804740075 3.6548451853 6.4106690025 4.0805138172 
5.0181210732 3.4942685692 3.6375479612 3.4697466208 4.2394813618 3.9104115038 7.0027005848 3.5229878294 3.6288835907 
4.1262068812 4.441795143 3.9016450292 3.4674344871 4.0458029677 4.4814820692 4.1524801059 4.2887535365 4.5240529099 
4.435984589 3.9519884468 3.6587234873 3.6180874438 3.8718092372 3.4902934149 3.5336548336 3.3005817197 4.4815837746 
4.0414142369 3.4583548874 3.7461366597 4.1678987147 3.4482411327 3.4845004442 4.2609861002 4.1980216987 3.974488124 
3.6474311299 3.6279465603 4.0559820255 3.2755657012 4.653230754 4.8125930451 3.4972030513 3.9120979818 3.7534277567 
4.1064599585 3.9944403913 4.1871675179 3.2339734067 3.6879433951 5.8731228763 3.7722618838 4.6268105927 3.7086099144 
5.4672778099 4.2719584832 4.7797121637 3.3591220505 3.8834345918 3.6051602324 4.8895855943 3.2921890281 3.4128204501 
3.919024245 4.0672741246 4.799764117 5.0769293509 3.6858793005 3.8854212214 3.869215384 3.7915329357 3.8899136031 
3.1630130712 3.9909259852 4.8251430603 3.5050616346 4.7216689462 3.4512993585 5.2474334742 3.5919413005 3.2186178358 
3.6480532997 3.7402975117 3.5510158263 3.4333798834 4.5167355674 3.4781788605 3.4824786869 4.2185986969 4.5507003133 
6.636939965 3.5482130112 4.2911426611 3.2249237281 4.3889759612 4.0975259349 3.7323268897 3.9876399234 5.7797713376 
4.9095035256 3.264460166 3.1563047331 3.3662346584 3.5562708917 5.0341541214 3.9415911782 3.4207457979 3.6827751019 
3.2658772761 3.5104756492 4.0220205653 3.1517294567 4.2642381923 3.5325070402 4.3750276855 4.5596399357 3.74228219 
3.9881938675 4.1659263915 3.6728423337 4.2678621255 4.9251419925 4.3044196671 3.5962896189 3.3758302264 3.6449436297 
4.8986959359 3.8621426202 4.7695335368 3.3106699101 6.0468056545 3.6332038222 4.8781890106 3.7540031953 4.4474985309 
3.670525615 4.2098699879 3.9204174013 5.1111694954 3.9249078134 3.4819533465 3.2001784761 3.7720745887 3.442362791 
5.1276916075 3.2456595381 3.503799502 3.4956969778 3.8541011178 3.5783679831 4.0553756618 4.4272524251 4.4049146266 
3.7316425843 3.3421247978 3.5821438461 4.1048975676 5.3733191734 5.1013698241 3.4673337969 3.392787844 4.037338034 
3.4412218266 3.6740005936 3.8825502565 5.637872428 4.0775728149 3.8183584041 4.3099161534 3.7226241734 4.3410788343 
3.5620358606 4.3079719078 3.8484172532 4.3540981862 3.7070051931 3.2817194843 3.2855063684 5.0058745235 3.6549276507 
4.8079538808 3.6355440579 3.7251562336 3.8483593441 4.2214647933 3.9255855653 5.8453170086 3.5708516027 3.7493947813 
3.4730008682 3.1838965424 3.5666989474 3.5694340049 3.262870574 3.8153899354 3.8977149201 3.6337135666 3.7650687619 
3.4179897152 5.5039938228 3.5386655016 3.4522473239 4.3171474065 3.8148419045 3.5956470182 4.6911529263 3.7315415793 
3.390185776 3.5778789813 4.3736037441 3.6037331397 4.1270633859 3.6777885364 3.7090207445 3.698926448 5.4368002028 
3.6697892437 5.2361003581 6.2404778034 3.7668083984 3.3318558957 4.8372673596 3.7092159006 4.7887553658 4.2682771033 
4.2239286699 3.2756742322 4.8091524276 3.7555027453 3.4123986959 4.5034365238 3.804214538 3.5554058359 6.0515699616 
3.6783168861 3.7559100645 3.3367296371 4.2008881643 3.4903806869 3.6127479667 4.558943448 4.3368892221 3.9905882533 
3.421924894 3.2824677256 5.2962951767 5.4454637896 3.88058333 4.5388634537 4.7130556263 4.2230084739 3.1002428578 
3.5090075437 3.2567603197 3.6106553773 4.7700301623 4.1615439771 3.6223390493 3.3816111105 4.4361061716 3.9673265655 
4.2698002375 3.4902885301 3.5938855562 3.7103983982 3.5735075752 4.213628818 3.4667392718 3.5508549783 3.6329334797 
4.026341448 3.8712540958 4.2287929667 4.673007667 3.2047660271 4.9244204466 3.23522924 3.1133957712 3.7887005925 
3.8961534385 4.7766919085 4.8358012653 3.4636543771 3.5389814342 3.4075499768 3.6576924046 4.9625523637 3.4842083702 
6.0021132927 5.3588210608 4.03033779 3.8035164818 3.7300392292 3.745899771 3.6693681866 3.2491820266 3.5837977117 
4.1221456696 3.7361418407 3.4980932303 3.6407165087 4.1583255552 4.0286426456 3.4895469127 4.4344114754 5.7878533518 
3.7623601045 3.9342617281 4.1024781731 3.5042353809 4.2772230943 4.0856521396 3.7161178471 3.6612058536 3.1822380672 
3.3692236306 5.2501997269 3.7295426587 3.5498917628 3.8905073427 3.3079429468 3.8138955294 3.7511850217 3.2257359668 
4.8681087158 4.6176321294 3.2822788789 3.660229519 6.9089702696 3.5937396827 3.8866742404 3.3044335137 4.1770939184 
3.5168845697 3.7612317006 4.2506226178 3.7402396047 3.8124246985 3.561344001 4.4379179141 3.2089119348 4.2918994184 
4.1812686053 4.1258544521 5.721319113 3.7995667661 3.7375148806 3.3704858229 3.5722356361 4.0105410341 3.4924495454 
4.2441036553 4.3183644595 3.3364664389 4.3577036589 5.0900528219 4.3683742666 3.2169185947 4.4071962029 6.1703652556 
3.7486020306 3.6260796221 3.5759296152 3.4838856375 3.4418945022 5.5390464106 3.3966870722 3.4061977646 3.535077823 
3.7171111659 4.1335997306 3.7284198539 3.6378614859 3.3875292392 4.1037843333 3.568743316 3.6068557282 3.3307070172 
3.8611418456 3.6299484379 4.7932521379 6.3882543209 3.5371085338 3.9774510666 3.8336339688 3.799961496 4.0502027545 
4.1107418827 5.5902791469 3.8617865838 4.622921164 3.2955211224 4.5140291426 3.2928629408 3.8988860799 4.4710039012 
3.7616043316 3.9244360668 4.0214724355 3.8349242324 3.9015383865 3.5415166887 3.8275825937 5.5215002831 4.2776046663 
3.754804119 3.4005225459 3.548533929 3.7115467515 3.6290312936 3.4258280502 3.617481623 3.2894529875 3.3665813244 
4.427495237 3.7401846972 3.878605998 4.0862786879 3.8879710602 3.1153671738 3.9766507554 6.7320514431 3.3413770912 
3.2993336219 3.4788572919 4.1751726579 3.7333238792 5.311955378 4.6059029722 4.6640417013 3.2836797745 5.5385805476 
4.6659269058 4.0333631589 3.5608963831 4.1076511685 4.083825399 3.8137410561 3.6559833719 4.6119728771 3.9025650475 
3.5247692204 3.7784680941 3.528846742 4.9832912008 5.595657149 3.5278526744 4.3538947909 3.5410974663 3.7775782353 
4.9153358601 4.9320167117 3.5174921644 3.2229095103 3.7106736378 3.5628450524 3.3898121929 4.1867273884 3.5341080551 
3.926948396 5.088308184 3.399655413 3.8898605505 3.2263775526 5.9408367119 3.3691475612 4.0122450328 4.4573414872 
4.2191024862 3.7021336761 3.7849550218 3.8654087222 4.9950435205 3.7233035085 5.2163758279 3.4608427943 4.0127918181 
3.4987110712 3.8239692059 6.6618196653 3.3895917151 3.2271347023 4.34836028 3.671745633 4.2607712281 4.0334111073 
3.8357022865 3.5317512779 5.9346445606 4.4640953306 4.2314530374 3.8700328856 5.4272539696 3.9219421798 4.9357359423 
3.5740981679 3.465538364 4.0325428974 3.5689286629 4.7385829789 3.3831560594 3.5360967691 5.3427295307 4.1561367133 
3.4902822172 4.8091922846 3.6979108022 3.2984182753 3.8410305204 4.6755083636 3.7463399938 3.9839398054 3.7900822386 
3.5317403243 7.6071230089 4.9799587755 3.3107011203 4.4774056564 3.5702935551 3.5200183517 3.7415196276 4.127947669 
3.3201963808 3.5759928061 4.100242468 3.591409706 3.402354425 3.1971967125 4.6253709411 4.347768348 4.5053790215 
5.0815380622 4.646162596 3.8333126002 4.4194977169 3.9248009831 5.1044127824 4.9214231183 3.8484269391 5.1691215887 
4.2235062587 3.3863139026 3.9783171711 3.3724892028 5.7367489146 3.7602134913 3.6143751179 4.2074256357 3.2783486302 
3.7599884623 3.8490998706 4.4013442529 4.0424317704 4.0586387768 3.2004932123 3.7539022814 3.8503688419 3.516309133 
3.3762934127 3.8474216656 3.7628816815 5.0214687658 3.5788414487 3.6227061264 5.7677294382 4.4386347655 3.4440446448 
5.1143386632 5.906869375 3.7893083015 3.9884737298 3.7730489336 3.7868009958 3.924341766 3.414800007 3.6769126709 
4.475729296 4.0039645931 3.5425333848 4.0386622077 3.3335395932 4.4832899805 5.1976404757 3.4097662226 3.6185880253 
6.6698743473 3.9807508395 5.7838942805 6.6866506877 3.4642540874 3.9631144031 5.3696591645 5.8523498273 5.6688397079 
3.3641961096 4.271026047 3.9962281478 4.2671826482 3.5227827523 3.604095317 3.5274314943 3.3558457449 3.4876413951 
3.7605581814 4.336050749 3.0225009954 3.3818661184 6.2090670805 3.7202087674 3.9383827381 4.0297933766 4.6780706465 
6.3429620432 4.4767149568 5.1714001971 4.6227486053 3.5999819153 3.5095366713 3.9241119244 3.6514386163 3.0870080568 
3.3407317552 3.2757712191 5.5789026284 3.7625371391 3.319342281 3.2653842476 3.8739570606 5.2633248937 5.2869411999 
4.4991498071 4.2924076241 3.2422369175 4.2985499256 3.3087152805 4.0493943654 4.0561750043 3.6540840865 4.5603100857 
3.4860080878 3.4945478828 3.4004520024 3.8306676184 4.0750212337 5.2216907382 4.8036987686 3.6345150383 4.8909427917 
3.8805113416 4.0889408524 4.300309071 3.4274686712 3.8482958491 5.8255874569 6.1260885399 5.9475140242 3.7293507088 
3.7291430867 5.5473974651 5.4212657084 4.3989819345 4.0897891964 3.7706162428 3.9952543243 4.416351142 6.7093166916 
3.8508066643 4.5427429914 4.0732403275 4.6696266097 4.2742868516 4.8724700039 5.5866846493 6.3383020162 5.6946468581 
3.6029339817 3.3193295399 4.4008785324 3.3856330614 3.5974500771 4.4164070593 4.7636018676 3.7632767397 3.9594062727 
5.7470620687 4.4636165205 4.0378351866 4.969019691 3.5604355261 3.7445416986 3.9059322218 4.8112069037 5.4670806524 
3.8243967706 5.0104593871 5.0048265731 4.7693426574 4.4596378312 3.3854014103 3.4606662205 5.7073378406 3.3240910926 
4.1956932589 3.0516699857 3.6187432978 3.5422871697 5.1464986107 3.5893954172 6.9173600252 3.8014407667 5.4437598816 
6.0784966644 3.6819069998 3.5286521291 3.8482767675 4.3674116444 4.1370205828 3.8801077961 3.8181175992 5.4822248375 
3.3691621856 3.9770195301 5.3004564263 3.2606144575 4.0834879665 4.8805152575 5.9432117376 6.0637334481 4.8258423624 
4.0566651952 3.4931727509 3.3796979423 3.2053552659 5.5064199704 3.9493198672 3.4441535844 3.728137676 6.8551651118 
3.2742123328 3.3835050604 5.0861949547 5.8243909133 3.9245923538 4.1160162949 3.2206585817 3.1568576105 4.0402234154 
4.2345692661 5.9555163605 4.2530880885 3.384002302 4.2378977845 4.3424525106 3.7324928562 3.3578128304 5.8780633458 
5.7717691697 4.8432018074 5.5615145816 4.6239718836 3.8861135032 3.6733695365 3.6673470835 3.5859846669 4.5121936285 
3.8104232736 3.6014282361 3.7789622381 5.8914500059 3.963573476 3.5354824668 4.8991854404 5.3510901905 4.2102947845 
4.4755658575 5.7997823948 3.2284531579 3.518514507 4.3965414325 4.7746040726 3.9328137823 3.7623290116 4.7199556622 
4.0075616346 4.3978720983 4.1052579029 3.9960191047 3.8218728574 3.9415999652 3.5716367046 3.5493956725 3.338626174 
4.870643992 4.8217241201 4.1265212865 4.3794184437 5.0605887367 3.47388969 3.7836198511 4.0113150649 5.2630784001 
5.1295140276 4.5681237487 3.4717003979 4.1587147154 4.6852769617 4.5335509452 4.3834698234 3.9775636972 3.6740701113 
3.9033141054 3.3827333469 3.5779195743 4.8487276363 4.508843486 4.2101221204 4.4052142484 3.9300779434 3.9988553145 
5.0313379823 4.7681080523 3.877413332 5.290485898 4.2920602177 3.9380655894 3.625871313 3.7642894324 4.3400575174 
3.2959387806 3.9979749529 5.7746232412 3.4744655896 4.1181282016 3.9423622954 4.6306825171 3.9712841275 4.3714681594 
4.2513239625 4.8683123228 5.613301137 4.3603685188 3.8347914206 3.7511978822 5.0107324182 4.9960229843 6.9131967077 
3.3956155279 4.4733801808 4.0264332111 6.157401811 3.6313829339 3.8449487914 3.5364725336 3.6742500131 3.903020031 
4.1257834341 4.2160396487 3.5112549872 3.7242446323 4.472645341 3.6439293224 3.9596368432 4.0393867405 3.3780357233 
3.3682472278 5.3887008373 3.278134242 3.5637757051 3.9910189739 3.8502747865 5.0503007921 5.9553097535 4.0810051849 
3.0401684379 3.1635947853 3.3309729321 4.8855050029 4.2297707304 4.3737043632 6.9626938335 4.6961365653 5.213436558 
3.8320734363 5.7407232999 5.6419016252 3.5642913994 4.0159445004 3.6869979045 4.3457108862 4.3727258916 5.0703459237 
4.9642784881 4.5883182669 3.5283749761 3.5741701056 3.3108672708 3.2985003545 3.1602969223 3.14314453 4.5036962204 
4.8443931976 4.6586446541 3.5715311694 3.3767538623 3.5761736628 3.6590695793 3.6788562968 4.9750440284 3.7321816905 
3.121225113 3.9924609724 5.0986775534 3.744838819 3.8928643919 3.9209982956 5.4793243427 4.2424844555 3.3466518465 
3.3226257802 4.3634661468 4.1649975271 6.9080150636 7.0574106206 4.2280766619 3.9507807337 3.7179514249 3.3287768431 
4.0085214156 4.5635187102 4.2067836331 4.1450730774 4.6182141394 5.0526836359 3.7040363972 5.587825801 4.3293990308 
3.5115608158 4.1240027669 4.779769336 3.4698268723 4.0576638783 4.0393905565 3.7684411075 4.8258067445 3.8250230516 
3.9166324627 3.7390395264 4.5738817931 5.2083677775 3.6175042509 5.1821222559 3.6692409324 4.2365701944 5.1206898972 
4.5009294684 4.0322077975 3.1387968421 3.7297531972 3.8828996897 3.9427412767 4.1851620919 4.895903097 3.2636142533 
4.5043071917 4.2300029639 5.7052768745 4.1832244633 3.4049520505 3.3942800563 3.2716143984 3.3245670056 3.7434779765 
3.907669516 5.2597501042 3.6642757052 4.78842199 4.8752541608 3.6505589655 4.8759617749 4.488983944 4.1193906205 
3.3380960083 4.3242396988 3.61169166 4.3061362726 4.2625437873 4.374267139 3.7256057949 4.5853477669 5.0752894059 
3.7126992862 3.1469188447 5.4078250588 4.4856160064 4.7602008754 4.507443319 3.4513574506 4.5024625771 6.0381095503 
3.6966543021 3.5919463842 3.6689591093 4.3682891704 4.4856118176 3.5331369575 4.509982972 3.4948529081 5.9174862531 
4.0838331911 4.9332765124 4.4936854206 3.1402966306 4.8319598844 4.2512279267 5.4932484017 3.7254967121 3.4537179867 
3.5457080687 4.6705154684 3.0763287094 4.8779875545 3.8365960244 3.9700622448 4.1852064352 4.5886628131 3.561879105 
3.8523929686 4.7460121159 5.3354320788 5.7405627398 4.5859033273 4.5174657032 3.0600262215 4.1572003477 3.4937588354 
5.5265282233 3.811459588 5.3762982105 4.7301117393 4.5627039139 4.4015242623 4.3281988878 4.1735666828 6.0214933066 
3.3317368852 3.4041969044 3.4464509698 5.8674175264 3.2397472998 5.6764995543 3.4190333281 3.8265200895 5.7487960035 
3.563337582 4.3992720817 3.8511155652 5.9082526723 3.1342914443 3.1216884945 3.7739625601 4.9189217492 6.7308549365 
3.3995279428 3.7768937632 3.911100474 3.2794639624 4.3231733837 4.5136055133 6.3208434922 3.9204294326 4.5801858662 
4.0938215017 3.6171194679 3.3385906353 3.1707599072 3.8959828753 4.54639648 4.6803727668 4.6076542988 4.4421900378 
3.6289269551 4.4276510747 3.7516357678 3.3159530074 4.4741699879 5.5703189257 3.4819808649 4.2428061286 3.7672760368 
3.2712112254 6.5173041079 3.5460701556 3.352313025 5.136706426 5.5109514657 3.9517146835 3.6326580168 6.071097558 
3.4617426754 5.7553304661 4.9985613132 4.8014756064 6.4974007316 6.5876691964 4.1220346173 4.2933398514 4.6128557613 
5.4541842069 6.0097517328 3.7208971318 3.4020268799 4.5731283735 5.2419702636 5.8947527892 4.2519714441 4.1250024921 
6.0816945794 3.746487646 3.4339232565 3.5918077038 3.6293300307 4.4160133909 4.0159000205 4.0480053522 6.5917132727 
4.6795610698 3.8812659713 3.6773057779 4.4203160279 4.2083505788 4.2133444674 3.521965596 4.4164880986 3.8529252013 
4.4227701152 5.7870857853 4.3799093452 3.2592732639 3.9778115382 3.6306096842 4.9870566451 5.5837261866 3.9546641875 
3.6302644882 4.3242169277 3.8271154635 5.3360524245 4.6268730267 3.3667297599 3.5025943168 5.6682091996 6.0262126672 
4.0950060423 3.6136126057 5.4628896441 3.4350556561 4.6498322184 3.7941334645 7.2374451151 4.0366552985 3.522556293 
3.944658157 3.3990917348 3.4400460056 4.5509089327 3.4689151522 5.3941934346 5.361768654 3.0702026879 3.7649392174 
3.4477789908 3.5594459955 3.8189616193 5.7323768293 3.1555886747 4.2775172886 3.5648389941 4.4109234907 4.1122272707 
3.5328610453 3.3601473761 3.2107353691 4.2878514664 5.5418773379 4.8480793998 4.1258225721 3.0799540914 3.222116279 
4.8028055297 3.7763300104 4.0449430333 3.1350915081 3.3737343233 5.4166293028 6.1239977508 3.309531977 5.0641886751 
4.4943324574 4.7429594223 3.8484464263 3.7901955074 4.1275343976 4.4448218004 4.1460997192 3.8182336945 6.0894576812 
3.423045362 3.4829667067 4.2262151263 4.2223244754 5.0994337046 3.5508347842 3.5319562776 3.9835069946 6.0081366121 
3.2699164454 5.3790502056 4.659271765 4.2135582821 3.9014179784 3.4677354443 5.5911772592 4.1561988012 5.8582741349 
3.7404507848 4.3878653801 5.8257777889 3.9287002241 3.5690997835 5.666336759 3.2484779543 4.4656992196 3.5106403948 
3.3156463049 3.9252251159 5.8980937048 3.597205023 3.5076614067 3.5009576169 5.6964082721 5.6397078171 3.9582512773 
4.9164232628 4.9989044216 4.6632831982 4.2238611792 3.7692260432 3.9380616735 4.1599940248 4.123108867 6.6996004322 
3.7382676549 3.9965490918 4.484951896 4.4614049983 3.9608109307 5.3880079532 5.2600989768 4.0896990657 4.3416029415 
4.7376232191 4.3500988103 4.8981692562 3.8254317821 5.8508571236 5.5959672932 5.1777485852 3.6697683658 4.3610036571 
5.513096526 3.9191727581 4.3545698976 4.8200242761 3.5747105848 5.2200121942 3.3214945583 6.6230303841 4.0144029521 
3.4937540196 4.8485320808 3.7112677525 3.8107940657 3.8060815899 3.9996175504 5.9814439445 3.2167556585 3.6878382061 
4.5075722257 4.2119193671 3.6281192571 5.1502489987 3.5935987684 3.9665334381 4.0795238654 5.3046788311 4.7951997482 
4.108412157 6.7132939303 5.8617246642 4.2510444412 3.7721167437 6.1042332701 3.9779169607 3.9927344667 3.8300951999 
4.7848424713 3.3548416813 5.3181066783 3.9752047026 3.8030395524 5.7937365798 3.3533566817 5.8932538584 3.7795716256 
3.3410441664 3.9020748424 4.9810312919 4.5562170888 3.9800738336 3.4884140299 3.9769898303 4.2566733277 4.3269541842 
4.2590988352 3.6036855648 3.7788453945 6.1495696279 4.7570609477 3.4054589344 7.6182955272 3.2275489889 3.4476903158 
4.7957842912 3.9648515677 3.4437449226 4.3589569093 5.0161178708 3.7852484937 3.1157007704 3.3225621537 3.9245693044 
4.8215655992 3.758362457 3.9357590566 5.1352738358 4.4353357713 3.9581672005 4.7589173274 4.3298115407 5.361172261 
5.4019476499 3.4242721886 4.2135803631 4.0372375182 5.8734224129 4.202459443 4.7499511031 4.649454041 5.9074259393 
4.0832216829 4.2413060628 3.8085461295 3.7068168885 4.1678793614 4.8848200087 5.9549206779 3.7943890246 3.8380409235 
3.59105336 4.8526382932 6.295076302 6.665710159 3.5807290127 3.3195031171 4.4314810722 4.0779989278 5.2233636685 
3.9767969753 3.363291963 3.47361589 4.1249846056 4.6568521772 4.0348629988 6.0832215508 3.7538999419 4.5317799002 
3.5387476814 4.3523822418 4.6880414253 4.2214920788 4.912560948 3.7390280209 3.9515091157 5.9268082015 5.880283006 
4.7847118306 3.2079291573 3.5302284578 4.8699019019 4.2134148705 4.6989614345 6.0021109259 4.8125007973 5.1732071305 