# vtk DataFile Version 5.1
vtk output
ASCII
DATASET UNSTRUCTURED_GRID
POINTS 10919 double
-1.2486000061 0.00030000000261 0.42517565707 -1.2493372882 0 -0.24833625044 -1.2486000061 0.00030000000261 0.8 
-1.2486000061 0.20009999275 0.8 -1.2486000061 0.20009999275 0.40875915984 -1.2486000061 0.19766751745 -0.11388035029 
-1.2485666255 0.00030000000261 -0.70001927137 -1.2486000061 0.20009999275 -0.7 -1.2425226038 0.2447385411 0.12402272447 
-1.2428873884 0.20009999275 0.089790123147 -1.2402029341 0.20009999275 0.19100413523 -1.235636012 0.2956819736 0.015500303385 
-1.2370140072 0.20009999275 0.0035231303008 -1.2354572681 0.2023666108 0.39787271582 -1.2327429344 0.45676031941 0.11455620143 
-1.2308822871 0.43299567285 0.039818059739 -1.2270821571 0.51779999733 0.15446283817 -1.2260692366 0.20009999275 0.29840478013 
1.0317698406 0.00030000000261 0.50438980766 -1.2260510921 0.20009999275 -0.067504829168 -1.2270115426 0.51779999733 0.065036693102 
-1.2230616093 0.51779999733 0.20767343017 -1.223378849 0.20009999275 0.52570793629 -1.2199507263 0.37807712369 0.28134124508 
-1.2246809692 0.33018132215 -0.049068336108 -1.2149168015 0.51779999733 -0.043756186962 -1.214423275 0.51779999733 0.26853058338 
-1.2145485735 0.20067375177 -0.36699865057 -1.2133018017 0.20009999275 -0.12485505342 -1.1989825032 0.27571197985 -0.16258032453 
-1.2069147734 0.33557660459 0.34304456094 -1.2035763533 0.36831675611 -0.12780608314 -1.2001000404 0.30629999638 -0.25 
-1.2041965798 0.45549580556 0.32715799965 -1.1974005222 0.51779999733 -0.11541201472 -1.1968000412 0.55830001831 0.53150000572 
-1.1961932275 0.64069934774 0.031467100958 -1.1951634205 0.33853396947 -0.37906916207 -1.1946598599 0.54179837708 0.60133601474 
-1.1936216527 0.63850088216 0.10422107831 -1.1943974505 0.3535544279 -0.29904725075 -1.1951999664 0.58489999771 0.57789998055 
-1.1954611522 0.6798683938 0.071921480774 -1.1950600397 0.38266044962 -0.33286461491 -1.1966716284 0.28880173438 -0.32820412435 
-1.1909444237 0.26503846431 -0.39778766653 -1.1915280457 0.31979999542 -0.22259214675 -1.193645525 0.39990000725 0.40520906448 
-1.1936596602 0.46403604562 0.53941454665 -1.1933204419 0.68701557939 0.03783497147 -1.1907866356 0.39990000725 0.37740752252 
-1.190798557 0.51779999733 0.018018611533 -1.1886115074 0.31979999542 -0.28242127895 -1.1882526375 0.3880938758 0.52618231027 
0.0927030985 1.5720867942 0.28178479937 -1.1846480784 0.20009999275 0.64913057084 -1.186835289 0.31979999542 -0.17975049019 
-1.1864830017 0.39990000725 0.47759141922 -0.77603437636 0.34494749083 -0.2611903391 -1.1859000206 0.59800000191 0.50229997635 
-1.1859000206 0.69800000191 0.0023000000045 -1.1859000206 0.39800000191 -0.39769999981 -1.1855999947 0.57319998741 0.46960000992 
-1.1855999947 0.67319998741 -0.030399999022 -1.1855999947 0.37320001125 -0.43039999008 -1.1862437984 0.461643243 0.45166357503 
-1.1830996217 0.5800497017 -0.062993396821 -1.1839797397 0.29370181254 -0.45236943814 -1.1775636737 0.50982624569 0.64648982499 
-1.1759378526 0.59437142586 0.14491915005 -1.1911272097 0.51779999733 0.35417844099 -1.1835053444 0.20009999275 -0.47334754467 
-1.1793973372 0.61752173971 0.59833600921 -1.1834902968 0.70472590704 0.10090920966 -1.1811935425 0.35303709507 0.56147437096 
-1.1807351537 0.41617219328 -0.32959246435 -1.1801553538 0.45769140464 0.39554976079 -1.1781161308 0.39990000725 0.41047759056 
-1.1739665853 0.57226791901 -0.12937667869 -1.1741584707 0.26554146062 -0.53359481902 -1.1774999619 0.6109000206 0.6367000103 
-1.1778357189 0.71110439145 0.13379499997 -1.1793048491 0.41040391332 -0.27631161432 -1.1767999649 0.57160000801 0.66849999428 
-1.1798798738 0.66558349141 0.15673991349 -1.1767999649 0.37160000801 -0.23150000572 -1.1754732707 0.51779999733 -0.10836201511 
-1.1754838467 0.20009999275 -0.51981143951 -1.1747792825 0.51779999733 0.11216292568 -1.174600029 0.43850002289 0.62199997902 
-1.174600029 0.53850002289 0.12200000286 -1.181746359 0.43840315646 -0.17331907039 -1.1736228878 0.20009999275 -0.56166630473 
-1.1738500118 0.62724997997 0.54715001583 -1.1747486321 0.72533899887 0.044121459284 -1.1737986963 0.51779999733 -0.1744938001 
0.17367032949 0.17236405543 0.38635390243 -1.1726500034 0.21660000086 -0.58070001602 -0.5552153543 0.15197318975 -0.71534424172 
0.57164739502 0.21808757478 -0.24395664468 0.25113318812 1.1583795786 0.28148504939 -1.1694570065 0.51779999733 0.40711942911 
-1.1662118208 0.36223996407 0.60826240005 -1.1651918125 0.3229249622 -0.22295464564 -1.1645244419 0.38963294351 -0.21504008152 
-1.1603493472 0.20009999275 -0.61778182786 -1.1629499912 0.44440000057 -0.32805000544 -1.1640939495 0.52500594275 -0.20951093771 
-1.1596299403 0.23253945492 -0.61781158587 -1.1627335548 0.51779999733 0.37712730765 -1.157071386 0.58689813121 0.40153608215 
-1.1622000217 0.68285000324 -0.092749997973 -1.1622000217 0.38285000324 -0.49275000095 0.45561172495 0.26199924436 0.074658409095 
-1.1669100091 0.62651163364 -0.096694075777 -1.1679121656 0.33646120704 -0.48869439425 0.93505888064 0.00030000000261 0.30436823452 
-1.1609000206 0.7368999958 0.15360000134 -1.1659091222 0.42839811259 -0.25099459502 -1.1624358312 0.56565526339 -0.1819981352 
-1.1585647233 0.26732404974 -0.59244226926 -1.1611600778 0.44581093534 0.66091587344 -1.1598999977 0.53439998627 0.15989999771 
-1.1623869857 0.47809237074 -0.20678201714 -1.1457592304 0.66660280533 0.61636849498 -1.1617303384 0.74634693382 0.092294259986 
-1.1503380519 0.44454357914 -0.23249366661 -1.1490972634 0.46365292158 -0.28603764095 -1.1469450235 0.20009999275 -0.64267504215 
-1.146328822 0.36770845691 0.65118420477 -1.1475422655 0.41487176239 0.66043098985 -1.1460000038 0.55419998169 0.1949000001 
-1.1487550864 0.50524997552 -0.23916337037 -1.1475251969 0.63241980256 -0.15717163011 -1.1471155197 0.33448415992 -0.55632410502 
-1.1493780826 0.54783279013 -0.23082794226 -1.1428409193 0.26119771758 -0.63495143182 -1.1481577436 0.51779999733 0.1612145795 
-1.1331185064 0.52945766273 -0.26457463672 -1.13341025 0.23505484226 -0.66223076849 -1.1432699094 0.45703449889 0.69831379606 
-1.1396698952 0.51779999733 0.3086894393 -1.1208006152 0.61677124938 0.36704596581 -1.1426278961 0.72264902119 0.19587854137 
-1.1369999886 0.69369997978 -0.13559999466 -1.1369999886 0.39370000362 -0.53559999466 -1.1294610549 0.48132252351 -0.25975382998 
-1.1296723209 0.3892277724 0.68209209995 -1.131499958 0.67049999237 0.68410000801 -1.1319430865 0.76680996391 0.18575164779 
-1.128782177 0.20009999275 0.75365390778 0.4116708573 0.00030000000261 0.97222892902 -1.1225730219 0.57562260751 0.32102254274 
-1.1151305352 0.68450557924 -0.18246131821 -1.1119687874 0.37770266444 -0.59226528033 -1.125889474 0.51779999733 0.20209425013 
-1.1182428936 0.41355367528 0.72075872687 -1.1140832252 0.70619418236 0.5904432133 -1.1166999817 0.80489997864 0.10010000467 
-1.1224806753 0.35796137462 0.69988219892 -1.1160863725 0.31973882637 0.72772969362 -1.1152999878 0.70040001869 0.66820001602 
-1.1152999878 0.80039997101 0.1682000041 -1.1079256157 0.71297732752 0.23640523683 -0.045218816341 0.10716786434 -1.2488620817 
-1.1201332424 0.59362196812 -0.24549677629 -1.1155873495 0.27209669922 -0.67082944074 -1.1170865404 0.22016510847 -0.68936630552 
-1.1044038071 0.51815853101 -0.30636509178 -1.1033759743 0.57078836179 -0.28639798485 -1.1003304016 0.69884559568 0.47977550224 
-1.1050902695 0.79842407014 -0.0068917834939 -1.0945570769 0.50904949287 -0.41547934947 -1.1024000168 0.56160001755 0.76180000305 
-1.1001325375 0.65971077827 0.26375711546 -1.1013666153 0.51779999733 0.24482564926 -1.0926812121 0.67800279136 0.73028558543 
-1.0950841446 0.77992418189 0.22734253127 -1.092935351 0.20009999275 -0.71374253177 -0.26803971938 1.1826133639 -0.43673659378 
0.94692292393 0.63366691912 -0.13155692539 -1.0875 0.82159996033 0.18489999771 -1.0859999657 0.69569997787 0.41420001984 
-1.0859999657 0.79569997787 -0.085799998045 -1.0957463789 0.48381672891 -0.48224792843 -1.0831500053 0.71895000935 0.69579999447 
0.074944971347 1.6028389365 0.12211667192 -1.0794954534 0.60740424599 -0.29919675026 -1.0747070586 0.30679184863 -0.70287381843 
-1.0765999794 0.64079999924 0.31270000935 -1.0810036767 0.74018719118 -0.17722109529 -1.0864706679 0.43288850677 -0.57600852792 
-1.0715085182 0.71991944212 0.26928266248 -1.0736000061 0.51840000153 0.78959999084 -1.0734012157 0.61816892045 0.2897250849 
-1.0771261568 0.4263989562 0.77960620034 -1.0830340756 0.65869589786 -0.24629974905 -1.0742732152 0.38334687323 -0.63770779387 
-1.0699374178 0.32737496455 0.78641346851 -1.0730507582 0.25557734705 -0.72499839754 -1.075583999 0.5483820508 -0.32613705935 
-1.0659999847 0.75980000496 0.57470002174 -1.0659999847 0.85979995728 0.074699997902 -1.0613857241 0.75264055912 0.51213456485 
-1.0584111012 0.8554855373 0.017257246643 -1.0614620977 0.70707024103 0.73625567445 -1.0632583979 0.64406278328 -0.28756368937 
-1.0649906684 0.33522158192 -0.69378528324 -1.0641556016 0.23030650399 -0.73545309406 -1.0483935945 0.73253598904 0.41629526506 
-1.0543999672 0.82980003357 -0.07990000248 -1.0487754675 0.66066670295 0.2975360547 0.23734458942 0.12748823705 -0.95176003484 
-1.0600669327 0.51087205438 -0.5117318585 -1.0517999649 0.75479998589 -0.20659999847 -1.057380234 0.44165748519 -0.61056217976 
-1.0482712226 0.663814782 0.78028658569 -1.0517000198 0.76420001984 0.27809998989 -1.0539180149 0.80777762529 0.24189010468 
-1.0541830148 0.20009999275 0.84452760648 -1.0397956078 0.75618571785 0.46947732405 -1.0481571406 0.85437328788 -0.021210965029 
-1.0458534256 0.55642405219 -0.41802821411 -1.0394677099 0.48283840375 0.81459852064 -1.0446713582 0.20009999275 -0.74862378563 
-1.043999958 0.77670001984 0.62540001869 -1.043999958 0.87670001984 0.12539999485 -0.10634452261 0.1766093338 -0.7425447694 
-1.0416590408 0.56776503509 0.80077486059 -1.037100029 0.6513999939 -0.2989000082 -1.0278401184 0.35421369116 -0.70104412566 
[...]
CELL_DATA 45888
FIELD FieldData 1
color 1 45888 double
3.1367468627 4.3562245544 3.3939802402 3.0646176068 3.6965448016 3.2028208464 3.4202557503 3.0433635071 3.6290633809 
3.3433084467 3.2893697758 4.1982619527 3.7382397543 3.4979820543 3.974575697 3.1441631602 4.0626234594 3.2572708753 
3.5547440143 3.5783334389 3.7047868919 3.7618001101 3.2162980673 3.4916393414 4.4232579076 3.6468227655 3.1188198927 
3.3228667599 3.9250542479 3.5926066723 3.1534900985 3.2593997986 3.5968453733 4.3962394086 3.2084053099 4.6093554414 
3.5292763386 3.6511991888 3.3246475084 4.4730768097 4.7897887221 3.2386507972 3.3676825363 3.3061195784 3.1084585245 
4.7511610759 3.8080457682 5.287866533 3.4580448999 4.2811143117 4.2739985681 4.8949948476 3.1964619863 3.2453675731 
3.7493427975 3.5083127296 3.9100471607 3.542908475 3.2665815847 5.5452497889 3.5480809794 3.1720790997 4.4276814079 
3.3815671654 4.4790963663 4.585462132 3.6899508989 4.0967646285 4.1163104848 3.2398012098 3.4904109147 3.6518626138 
3.3194424582 3.19339374 3.7493689501 3.5653205823 3.5819310096 3.5511877128 3.8821962234 3.7904710786 3.2661312734 
3.3627175411 3.3285897667 3.2958793499 3.377508629 3.4135850972 3.1434299792 3.3773823839 3.4042917716 3.3552846299 
3.208151269 3.2719614026 4.1212113828 3.3690739207 3.5444794243 3.419354331 3.3013378216 3.7965216791 3.4490881248 
3.8042596236 3.250212269 3.3078325094 3.1921182256 3.1851623587 3.5830483309 5.8968989865 5.674626253 3.3009338612 
5.4347307013 3.4194773066 4.1416533331 4.2159450761 3.9276552903 4.3837218268 3.6265290139 3.282203102 3.1659320762 
3.0661015522 3.3446617552 4.2440591185 4.0123422906 3.5661928266 3.3767250737 3.0978845019 3.2249144787 3.8288349456 
3.2959438455 3.5122571786 3.1472310616 4.2122192176 4.3526274317 3.7303029677 3.2624345688 3.1701538697 3.3653494136 
3.3563572793 3.6557417474 3.5796270233 3.5226958938 4.3683265204 3.3099356383 3.6896258054 4.8117567811 3.5284158614 
3.9805587941 3.2080890382 3.391834612 3.5459001409 4.630159448 3.1163372072 3.2003399071 3.5009988787 3.9257910848 
3.1024733104 3.6810110246 3.5623795623 3.2402858109 3.33169802 3.6866466747 4.4799240209 4.5548489641 4.3400836256 
5.0932270424 3.9232933624 3.4689406057 4.3828465557 3.5504337182 3.1914920996 3.149068545 3.9634611378 4.9306575715 
3.5244328387 4.8033389468 3.4253746069 3.5700354173 4.4538119356 4.0579110858 3.5843352725 3.736834342 3.5229039325 
3.174322714 3.1874631866 3.1697768511 3.5701367171 4.693310443 3.5531637469 4.0552711215 3.1058045082 3.6031781238 
4.1940582897 3.1829662131 3.8553683579 3.9648952264 3.6649115499 4.6429211178 3.5506489612 4.9204400783 3.1628295185 
3.341473761 3.188245068 4.5335508587 3.329603348 4.6973680999 3.4318679333 3.9084025967 3.5171003869 3.5399583122 
3.6780953221 3.299200776 3.8109100947 4.439632167 3.4140202535 3.3495920105 3.7315406216 3.2079192897 3.6318715664 
4.0185771872 4.2775519979 3.3966923212 3.3959028649 3.2338358304 3.6533065139 3.2614881746 4.4091478517 3.8895910588 
4.8182155073 3.7152442227 3.6162072243 3.6524061305 3.8610808298 4.1029668897 3.1981243847 4.6341108714 3.7760810414 
5.1778880298 3.2872404995 3.6038301028 3.1817841609 3.9049522078 3.4046450798 3.1909138604 4.2736266865 3.5084012474 
4.4517573561 3.3371265563 3.6530174315 3.9047415761 3.4904283413 3.4929446296 3.3590695903 3.8261860987 3.6183698397 
4.0869753035 3.5563378115 3.1825394747 3.5037993699 3.2583926058 3.6728988769 5.9959969857 3.6098897853 3.6959444848 
3.5700058773 3.21975269 3.2792264562 4.1250893137 3.7278857544 3.8444705653 3.5700264755 3.9083821071 4.1889735039 
3.6660257909 4.1938648988 3.3586755336 3.7075880718 3.355644205 4.3854677861 3.5604280198 3.9307861749 3.7967578772 
4.2632837664 3.5012245186 4.2575579368 3.1600696988 3.4514841838 3.3905970505 3.9424782327 3.970305979 3.4107081672 
4.6987856352 3.3736000159 3.5085606238 3.1714128423 4.2896675461 4.1728141718 3.3114879012 3.6065765103 3.5623207484 
3.4988288144 4.5134192813 3.3910760226 4.6805558419 3.4610364988 4.3671026777 3.6497836639 5.1496645734 3.7526052043 
3.589862399 4.8923082652 3.2190515018 3.6331380651 4.7083434108 3.5673972099 3.2201384221 3.5595628763 3.2284876447 
3.9358287015 4.1024919428 3.7948044785 3.6263129038 4.4192615333 4.3165912522 4.3932359987 3.5974110355 3.6196987387 
3.3921076084 3.3785700596 3.8435744825 3.4588507983 3.5789463661 4.0039273829 5.2834865091 4.1959236202 3.8011547252 
3.2122576274 3.6488675075 4.1044359021 3.2706829071 4.4385669063 4.8056580952 3.2418633344 4.1335677202 3.612909404 
5.0794401749 3.9143647842 3.7070681394 4.4886721788 3.1985757177 3.5863192182 4.5719639006 4.2344746056 4.2153801419 
3.9880146582 4.6180008405 3.8512326562 3.6006770776 3.6439661808 3.7911346979 3.4403140275 3.2151496672 3.8085039326 
3.094613123 3.4816510729 3.7377906027 4.3956251969 3.712056219 3.5409585806 4.7038731014 3.385848772 4.5761064537 
3.7757922954 4.4443292244 3.6060843079 3.5276536136 3.6883260354 4.0970402608 3.3432508983 3.8397608949 3.6148330736 
3.9282206211 3.6459008552 4.7800988579 4.0320389749 3.4238372039 3.1829733466 3.4940863336 3.7211179203 4.1176761546 
4.2000033588 3.6230166794 3.7326905152 3.439350145 3.6697717017 4.96082824 3.5470999648 5.1273465309 3.986017116 
4.5809060027 4.5163319328 5.2694629233 4.4963938195 3.9557384971 3.887811613 3.6610864593 3.9191307119 4.1407526038 
3.7367339965 3.8896768901 3.9081572342 3.5107425415 3.433843933 3.7557894074 3.2328291027 4.0977105109 3.7269524748 
3.5855074948 3.7746201028 3.5236731775 3.7634515772 4.3755085166 3.4468359573 5.0029872147 5.1790410472 4.1237927541 
3.2756905262 4.2587987753 4.2175140983 4.0969065309 3.7506794143 3.3753315879 3.6463097218 3.6023448916 3.8378409359 
3.4657161211 4.071801054 4.1789100115 3.7707686649 3.9010616925 4.0064957771 4.0666941727 3.7841961931 4.5704406686 
4.9272459984 3.965869797 3.8050974592 3.7185673111 3.8100962054 7.9071762642 5.3208461526 4.5068462313 3.4974746087 
3.7231396778 3.6659929617 4.4023708894 3.7995302629 3.5859553695 4.343059604 4.1671760312 3.3552467871 4.0080069737 
4.4119045427 4.21419198 4.2141572765 3.3738762729 3.8972447632 3.2404353418 4.108502642 4.449330591 4.9056795277 
4.4350301286 3.8914488577 3.8109938452 3.42502036 4.6640681069 3.3295151381 3.7488826168 4.1567841331 3.230944703 
4.1832707226 3.7064489299 4.1001619271 3.4689489558 3.8027684243 3.7974491108 4.3189718428 3.4314084861 4.5097630213 
4.4506040088 4.9412858338 3.2316188396 3.4922900944 3.4876472672 3.1016393205 3.7592291105 4.2028725551 3.9604013094 
3.4556724505 3.7870456192 3.6422803694 7.3171087829 3.2433119119 3.6359026467 4.4875685228 3.7918069868 4.8355035068 
3.4547633277 4.0538198418 3.3677633721 4.1542521654 4.0674856945 4.1711692727 3.6668233511 5.2430395984 4.0091243186 
3.4806390367 3.7717254551 4.143569325 3.7707021739 4.3121996824 4.6795844136 3.9931894219 3.8407468822 3.720939348 
3.4351981391 3.4776422892 3.1552024838 3.2582278442 3.5629821479 4.3241409071 4.3596181611 3.3643913224 3.4570486421 
3.6212696769 3.7480272709 3.1591458576 3.0722440259 3.3343801019 3.6429171968 3.8325169235 3.1839695809 4.3610242367 
4.1910701881 4.2064158026 3.9981669375 3.7873745632 3.1915123866 3.5954954569 5.0078565077 3.3490028157 3.6486914488 
3.4639892916 5.8730586516 4.1552667931 4.5867574728 3.6070737383 3.6522200333 3.5900198425 3.1077436996 3.2476942046 
4.614367457 3.9164345543 3.7622764383 4.8349921886 3.2418253259 4.5581144859 5.0776096812 3.7454950875 3.2129180999 
4.0279691813 3.1671452247 5.2274780985 3.8277707585 3.3309265887 3.6326080455 4.24767043 6.0108253747 4.2428484058 
7.3825501357 3.6564819715 3.3246794549 4.132569796 3.4480101078 4.2050012163 3.5782100654 3.9664393354 3.3369459678 
3.9572371548 3.4896203435 3.6529970265 3.6504453482 4.6655243821 4.1326021971 3.5874792916 3.9842041157 3.202180293 
4.9838154201 3.2254491569 3.5098461186 3.272824003 3.8180748416 3.4649337891 3.9221814011 3.5686289625 4.2410395167 
4.0698141881 4.0280713872 3.4344353934 5.312184897 3.2843015649 4.2875657095 3.4877201352 3.5392278225 4.5148862155 
4.4953261471 4.9702374974 4.136645851 4.7789414401 3.9746403501 4.9498058138 3.5540381285 3.2770754648 3.4177861666 
3.4277276274 3.7076052026 3.1427212278 3.850458795 4.0227215489 3.4072962586 3.7351956802 3.5670804824 3.5190182459 
3.4163928019 4.6044961688 3.7492640909 3.2493552737 5.3705903601 4.1817685875 3.5851382584 3.7486750112 3.9823362418 
3.7240836218 4.0282889555 3.6841294701 3.6162712449 3.8978854844 4.2449442157 3.7368743265 5.1319265862 3.702187353 
4.5620355004 3.4765885311 4.7808877611 4.2741487379 3.9080377626 3.6115970339 4.038320643 3.336693322 3.2742597162 
3.6220394974 5.1610692846 4.2845899871 4.4059138853 4.0730685177 3.3967364659 4.2243300588 6.1340722995 3.4018015813 
4.0383994528 3.8440971553 4.6151739056 4.752123256 3.5072685098 3.380610695 3.2897035153 6.162029082 3.0656887303 
3.4323118028 3.4069895505 3.2227910861 4.896858488 3.0348180745 3.7890293648 3.959481496 3.9952807655 4.0091669374 
4.5874549806 3.1809636577 4.2981146392 4.1682586093 5.2272421755 3.7601566003 4.5174507804 5.5839048166 3.6253789606 
3.5623253906 3.273332395 3.9682423758 4.1411907152 3.2140111086 4.3903003031 3.4874346156 3.72577931 5.4307583585 
3.7378858575 4.2144639175 3.9624239095 3.1878159322 3.3733998305 3.2514969759 4.18541658 4.2836268337 3.4886301142 
3.812103462 3.3173577561 3.7089961812 3.2657999251 4.441773639 3.4759512276 3.890098211 5.8483227907 3.7966120698 
3.1055766604 5.3379295835 4.6326288683 4.1568937201 3.4644886169 3.9161203237 3.7334638411 3.7522367248 3.6418981865 
5.4101190495 3.4334763981 3.6997752381 5.2642724282 3.5084048645 3.2174621898 3.700366913 5.5699454914 3.7967494847 
5.0393069774 3.7134531688 3.2258159898 3.5941475045 4.3638870782 3.2273789435 4.8615241457 4.2425052696 3.6053501183 
4.3631438011 3.4824192506 4.1432149575 3.6061886612 3.2941660993 5.0940233041 4.4204228724 3.8439680794 3.5765419844 
4.8985393203 3.6853687775 3.21312931 3.1943563805 3.6914596857 4.0076044054 3.9940393642 3.9414598549 4.4886470067 
3.1688809599 4.6061366506 3.8150636232 3.8278566623 4.5600312567 7.4544326751 3.8112062922 3.3124876835 4.6416300902 
5.2693191991 4.1024987349 3.6716537434 3.758543355 3.3705089028 3.6112721576 6.1730768577 3.7536235453 3.6080772111 
3.1943660743 3.8884889133 3.7187299712 4.8263371477 3.452173459 3.7326042317 4.1733222779 3.9466012458 4.9548601794 
3.3158204152 3.3092027743 3.7457668931 5.1418129332 3.0563256609 4.4174708302 4.4880008545 3.859208353 3.4892378536 
3.5885346813 4.0868860633 3.5163805527 3.4200036375 3.5419631554 4.5196144115 4.2072968167 3.6721490409 3.8187771978 
3.3746288225 3.211814127 3.2556053973 4.4345425239 3.3467314524 3.9277018298 3.7615966753 4.104558678 3.1061978489 
3.3431437075 3.4374357999 3.3432638274 3.8200225016 3.6455930253 3.8376208869 3.0874362983 3.7049180859 3.3798132511 
3.9636754343 3.610785589 4.6353775238 3.5690279108 3.338583163 3.4414017101 5.046066922 3.7955039791 3.5974428964 
3.3076266961 4.0501343905 4.0145799433 3.5821094278 5.2685680336 3.6081670059 4.9423481897 3.5339796452 3.4641673891 
4.2443887501 3.2405615765 4.0838604322 4.9033636566 3.2193195022 3.6100905134 4.5260298336 4.3288321057 3.9679384123 
3.8588617257 4.5812710704 3.2291108407 3.3246629969 4.4029201977 3.5584239109 3.3214665936 3.1581326769 3.1145437634 
4.4678164741 3.9441839811 4.1267805977 5.0658313967 3.3209399036 3.17298251 3.4628745295 4.168680352 3.3226145088 
3.9607621939 4.6253187144 4.3610577742 3.4417875848 3.2556197565 4.2673982206 3.7781386782 5.4191077306 3.1967993489 
5.5403512843 3.4939533381 3.0734046346 3.9531108392 4.4511739008 3.80023734 3.6534317104 3.7826876409 3.3366076155 
4.2869206311 3.5621218776 3.5764390284 3.176856858 3.1843877846 3.3885507198 3.5401808067 4.1210274734 3.2553818793 
4.1530151024 5.1806609612 3.2479304153 4.197424854 3.2811980154 3.2997121323 3.8515732006 3.1090627878 3.5305609157 
3.4325212838 3.4608135223 3.2741811664 3.3050856881 3.0637759242 3.1646414727 4.1527268336 4.9029763068 3.20029608 
3.4302478333 5.014556215 3.4222993938 3.1525512882 3.298005326 3.1875585642 4.0747801202 3.7281404225 3.4609767872 
3.6044953156 3.0898165081 3.7405956914 3.3739420323 3.1654548297 3.1604366058 3.3917259538 3.9247818055 3.4230322127 
3.8770877843 3.239984697 3.7017337862 3.2494640398 3.2960069892 3.3503269136 3.4543534051 3.8264513335 3.3297411512 
3.4651768216 3.5665702982 3.4298103835 3.487530155 3.4969028512 3.4010240964 3.3990169798 3.6283602125 3.8368055019 
3.4312521587 4.7621599261 3.4440928848 3.3141084652 3.6610195673 3.5045160235 4.3023416064 3.453715144 3.0363529336 
3.8612737348 3.4082041365 3.6472562112 3.5704504841 3.6541400334 3.3219804114 3.8309238487 3.4732656931 3.9672912575 
4.4842179399 3.3501024506 4.8800439491 3.470870476 3.1797843872 3.3419832683 3.3129126412 5.3913965991 3.173779366 
7.3391079363 4.6535652703 3.3257305453 3.4214401449 3.4822716185 3.906216832 4.9396317697 3.8884907322 3.2053936161 
3.2825549517 3.7597397359 3.2047439432 4.7530069278 3.2318682039 3.9524287362 3.2573791589 5.9850098383 3.4583535279 
3.2082579869 3.7870045959 3.3030528669 4.984168347 3.1935780822 3.7380438684 3.1799754004 3.3022843719 3.4181600132 
3.3352627028 3.1930615591 3.3947016808 3.378271115 3.6126373519 3.8054766185 3.1851598603 3.5894503444 3.787061495 
3.3715057645 3.6421339708 3.1682055543 3.1236964108 3.5056242673 3.6341669309 3.4942654639 6.1830573544 4.5333245386 
3.9062187988 4.35716547 5.0751973528 3.3165716906 3.7181667489 3.5693140984 5.4763516275 4.3875311761 3.5476322308 
3.157106599 3.9638182107 3.1892652504 3.189944526 3.1445984622 3.2719146181 3.1630930199 3.435072081 4.6881741819 
3.9632161411 3.18130609 3.4686818817 5.1254968653 3.5455250324 3.2877391621 3.5818982693 3.220367615 3.036415249 
3.2249663463 3.2442550294 3.4504508896 3.5674915132 3.9385859118 4.3631442633 3.5695612078 3.2855431998 3.7290958001 
3.0668793139 3.244606899 3.6128357579 3.2845810148 4.3284337726 4.0799799032 3.1415900729 3.2535906398 3.1808901924 
3.1433748569 3.3648470223 3.9789001678 3.4202509213 3.5997469352 3.9874109353 3.5475355325 3.2352002569 3.2161390039 
3.5388343213 3.485425588 3.3490092663 3.1769663211 3.9677786376 3.114459537 3.502918493 3.8852092064 3.5085721314 
3.5036045773 3.4625332818 3.170240602 3.2838948577 3.3058413846 3.5986784767 3.3702516927 3.3887725575 5.442515339 
3.3365570839 3.4405452711 5.3798127008 4.0893661981 4.1937842432 3.5079800574 3.7383122974 3.405133971 3.3363060359 
3.3588000067 3.8549278948 3.2675890241 3.2761144417 3.8476818378 4.2632280596 3.312546319 3.4681015332 3.401544304 
3.6724463364 3.4042065148 3.342532522 3.1425030764 4.652333428 3.3555263746 3.206415559 3.4674857347 3.20089795 
3.3566566393 3.1878860475 3.3282940047 3.9857676445 3.5476811058 3.6390664394 3.3034621936 3.5388779753 6.1581383864 
3.5130853127 3.0843000087 3.4596299232 3.6885288944 3.4077314248 3.1675918169 4.6412885173 3.1924637669 3.5495800415 
3.4701219003 4.148635379 3.2607764138 5.2224742103 3.5612039054 3.6068208005 3.2409623081 3.2436739078 3.3429930122 
3.7650944318 4.0285786153 4.1169445422 4.0693652667 3.4396583473 3.6296318473 3.6011935762 3.5457799431 3.8828201935 
3.3968909919 4.5344039873 3.5178729013 4.0228960609 4.1178436351 3.6878704478 4.3585503078 3.7041687716 3.1332178417 
3.3321973981 3.7701527108 3.7081044614 4.1590834329 4.0858814977 3.4910386981 3.5894429846 3.8802195138 3.6065280833 
3.4100619108 4.1907329776 3.4538746266 3.4787197639 3.5155738043 3.1207493647 4.1095510536 3.2260110706 3.4305995681 
3.3432939706 4.1515450244 4.4351028282 5.849555442 3.569340531 3.6105678216 3.4488883127 3.2442700225 3.1315340764 
3.6156967216 4.1119363053 3.5694006093 3.3937447042 3.3323499093 3.6513566367 3.7017444486 3.3097387554 3.4947316123 
3.4331705574 3.4256435396 3.2951855126 3.1612676308 3.3334320446 3.1030959031 3.65621664 3.6078097359 3.4989588185 
3.6078440915 3.4989662518 3.1906670194 3.4669169982 3.9009305313 3.6814595282 3.2957054282 3.2715742801 3.19248061 
3.1577711878 3.2797850246 3.1173993788 4.7920029906 3.1983401355 3.3051381063 3.4164439958 3.3411530436 3.3342751466 
3.8203018583 3.3201395471 4.2108879828 4.0343645295 3.3703774059 3.2225789594 3.7427034522 3.1743834547 3.7693585793 
3.3394695646 3.4405343758 3.1389686723 3.4206401034 3.4264703593 3.4313994324 3.6877391585 6.5058182989 3.3984041559 
3.471473915 3.2758271306 3.2100139538 3.3314181576 3.2051099033 3.5578294639 4.1975782842 3.4689290175 3.3831929672 
3.1923212788 3.7105345315 3.2624020839 3.6351100744 3.5762499532 3.2568006598 3.3384405441 3.6682248519 4.0281090616 
3.6029839586 3.2590769583 3.4289818611 3.2957371553 3.3488322017 3.1437193628 3.5390658209 3.540210177 3.4076603611 
3.6874903583 3.3105471019 3.4007772855 3.2474313831 3.5361255868 3.4980404112 4.9235994937 3.3568218162 3.5123714597 
3.3917492911 3.642153841 3.3420539178 3.3640738451 3.4926619843 3.3903332126 3.3356221393 3.5258054229 3.1854550413 
4.3990963877 3.5528255928 3.8379891473 3.5609812492 3.8624651237 3.697982808 3.1360813033 3.4345183859 3.3731146217 
3.1232528256 3.4402423158 3.5914685213 3.1482990357 4.7195059734 3.5984839289 3.2362807501 3.1751602159 3.2919857875 
3.4589704711 3.3585294056 4.2360881264 3.5987865515 3.9873210194 3.1771835144 3.8157523342 3.3210443549 4.024957696 
4.091997427 3.4479061455 3.2199558242 3.4026879986 3.5984787768 3.4136843434 3.4802585572 3.0447582528 3.7580622254 
3.2919912735 3.2854500988 3.2527440544 3.47317061 3.1946107328 3.5949725362 3.5373739116 3.4032213538 3.5458216202 
4.1294668539 3.2810370348 3.4604195205 3.2972504747 4.1715996968 3.7219826866 3.0286364634 3.1367600885 3.1971359821 
3.7058315876 3.4296127635 3.581326154 3.2422696152 3.7535576769 3.2596234751 3.485013548 3.4590877901 3.5156804304 
3.4522440363 3.4480655021 3.8893854031 3.8078828848 3.3608134844 3.644763073 3.3498376461 3.4494433701 3.4407669579 
3.2253342348 3.1207712183 3.2490969254 3.2592829401 4.1470158553 3.0957460111 4.1121890414 3.5019790929 3.2059232164 
3.1572044114 3.410448 6.7314656407 3.4655263076 4.0032859066 3.9223359203 3.6241312647 3.361475501 3.4200655935 
3.2519418631 3.3777280927 3.1275383037 4.850736912 3.2703270467 3.5239117722 3.60945878 4.2096793631 4.0326906972 
3.2670021632 3.4557829375 3.9533314703 3.5890468328 3.8094939806 3.8780578468 3.4186649684 3.8876042259 3.4076738312 
3.1020126681 3.2195763248 3.3361303258 3.3970886541 4.7049355101 3.2832231515 3.5091196836 3.2255418062 3.3162705029 
3.3333633966 3.8935932377 3.328390203 3.5523920575 3.5100952775 3.2590636964 3.1025437317 3.5594731556 3.3959208388 
3.2297008008 3.4224743093 3.568105934 3.3034383909 3.2603096574 3.3372450322 3.0996425296 3.2155423414 3.4356009951 
3.425955018 3.2281935858 3.236850953 3.2759679631 3.488703991 6.4976767737 3.8341663491 3.4858825834 3.3101996595 
3.1467970442 3.645982079 3.3498100686 3.2682858846 3.6566013433 3.2559832696 3.6282066265 3.283542755 3.7643513688 
3.5731168158 5.4884104137 5.9467702229 3.2464315811 3.2970060234 3.6877590275 3.6442550795 3.3500915046 5.1547415673 
3.7982336337 6.48528769 3.4082107598 3.2928535495 3.1899974061 3.3780512592 3.1602673217 3.5928113908 3.2329947538 
4.6840173801 3.4967519423 3.5134517584 3.3487978643 3.2653151626 3.6396660388 3.2467816701 3.6547710218 3.4189261058 
3.6796202115 4.5006182608 3.5043930896 3.1534422643 5.1411098544 3.232168516 3.8568823667 3.5893004096 3.4509930279 
3.158334683 3.1718897886 3.7316497985 3.372339486 3.3410189978 3.6712950629 3.8570243348 3.0824583614 3.5845063322 
3.0661566215 9.8625633486 3.4257657083 4.1370355379 3.2183128142 3.5329350559 3.267119602 3.3025972418 3.3557018391 
4.2995019931 3.5938707793 3.3011343625 3.092325251 3.2871314348 3.5479112284 3.1380761187 3.1372048489 3.4673352435 
3.4257474464 4.6178876467 3.4029174318 4.33287799 5.4201758479 4.42315636 3.6852437138 3.8984115769 3.5779869157 
3.6743665684 3.2003837958 3.2272710909 3.5497950994 3.3030716071 3.2522712864 3.2349522405 3.2483835876 3.1483556556 