# vtk DataFile Version 5.1
vtk output
ASCII
DATASET UNSTRUCTURED_GRID
POINTS 1587 double
-0.52816 1.5391335 0.94287275 -0.50007276576 1.6754648176 0.97069684995 -0.47262813889 1.2358311313 0.89171322389 
-0.42527575 1.71291775 0.99820825 -0.4033145 1.09876175 0.90627675 -0.29318375 1.009712 0.8975665 
-0.28488225 0.8572765 -0.009042405 -0.27564025 0.831638 -0.19450625 -0.27187076392 0.0027165149288 -0.19261745083 
-0.27155771468 0.076326141241 -0.20443952788 -0.266738 1.095446 0.996762 -0.2638785 0.9568575 1.030568 
-0.263118 0.07946595 0.691644 -0.260684 1.6346695 1.0572265 -0.2554098173 0.0074530757604 0.73984508342 
-0.25296 0.834786 0.98238275 -0.25186 0.707616 0.494365 -0.2468316 1.011774 -0.09182 
-0.246812175 0.69937825 0.05721235 -0.2456981681 0.44491168491 -0.30050007262 -0.246207775 0.01010733 -0.0926183 
-0.24535975 0.8696395 0.4354245 -0.242431475 0.586321 0.47386325 -0.241915125 0.07138865 -0.115815875 
-0.241177525 0.904632 0.5774375 -0.24058685 0.093898675 -0.2690615 -0.2363607 0.0196555125 -0.26385875 
-0.234011375 1.1294115 0.78887375 -0.233787125 0.732773 0.364151 -0.23283755762 0.39999446054 -0.28748708602 
-0.233328225 1.0553095 0.7765465 -0.23097020931 0.075173707193 -0.28068744002 -0.22851075478 0.59392447944 -0.18800217364 
-0.228013825 0.0059036525 0.79052075 -0.226400525 1.057314 0.2059023 -0.2263957 0.083757325 0.75828125 
-0.226022675 0.10993145 0.61434125 -0.22623708351 0.43822238739 -0.25175246822 -0.223847125 0.247657825 0.54086975 
-0.2231794 0.8932895 0.18172045 -0.221964675 1.04445175 0.013637925 -0.21866631856 0.066558777627 0.57629243592 
-0.218958325 1.198243 0.92168375 -0.2180525 0.66948125 0.601691 -0.21777807527 0.64673483084 -0.26949199256 
-0.21698015 0.79708275 -0.2848825 -0.216008475 0.12430595 -0.228220775 -0.215057475 0.449415 -0.34701825 
-0.214230125 1.05784525 1.13273575 -0.20775001902 0.98906481869 1.1160454812 -0.21313397393 0.39071101249 -0.33459638723 
-0.212524825 0.986227 -0.2416923 -0.2086210021 0.65345341488 0.33710872252 -0.2074246 0.59918425 -0.77830825 
-0.20924815777 0.19174667273 0.51198853856 -0.20673426122 0.54995900526 0.3711739945 -0.206008325 0.578099 0.51822075 
-0.20407535 0.4217615 -0.582298 -0.20340375 0.02989625 0.5982905 -0.2003245 0.484097 -1.00184525 
-0.197944975 0.7641395 0.33660625 -0.1982609873 0.126664844 0.65836000925 -0.19635245 0.27306825 0.56648075 
-0.196147125 0.2997755 -0.84339375 -0.1951316 0.9467705 0.7423055 -0.19166575 0.87627425 0.80710175 
-0.182854575 0.7608695 0.182844025 -0.1809555 1.126635 1.120292 -0.17924268154 0.43486568678 -0.22574681543 
-0.17727930901 0.38652404175 -0.32832939883 -0.17771086814 0.44195523492 -0.33902818505 -0.178211 0.123672325 -0.22037965 
-0.17834087738 0.096963842949 -0.29564867323 -0.17606895 1.13505225 0.0060668325 -0.17559645 0.58213125 -0.1478015 
-0.17379142321 0.01340808184 -0.27920524566 -0.1743138 1.0331575 0.5849955 -0.167709175 0.5759715 0.52022225 
-0.1676465 1.1215685 -0.127255775 -0.166578775 0.12456545 0.659012 -0.16517915298 0.23468597989 0.59220249395 
-0.160758475 1.14465625 0.22265755 -0.15752274676 0.098283068403 0.78420940949 -0.155539875 0.40318175 -0.285473 
-0.1563864735 0.11306195778 -0.24291401054 -0.1542313 1.28116825 0.83525825 -0.15139115 0.6051595 -0.193023125 
-0.149675175 0.074044075 -0.11119195 -0.1484195 0.00542605 0.81334 -0.148090275 0.63863975 -0.27203575 
-0.14463658523 0.42387426967 -1.2006856316 -0.145161525 0.25655775 0.543404 -0.144595175 0.2887155 -1.10877925 
-0.14434345 1.00943 1.16282275 -0.142414725 0.438123 -0.30237 -0.1423241 0.007452955 -0.095655875 
-0.14208190073 0.21887396305 0.49565037948 -0.142111875 0.1160405 0.62823425 -0.142008425 0.6376055 0.60680075 
-0.139721475 0.58251325 0.493962 -0.13625671229 0.56306325755 0.36004344939 -0.13802909746 1.1837992979 0.75670711533 
-0.134769725 0.05475935 -0.254251 -0.1344117 1.0590895 1.19543975 -0.134265225 0.063133175 0.57685875 
-0.134052625 0.0235674625 0.58611825 -0.132405925 0.800334 -0.5597655 -0.131526375 0.64931275 0.334354 
-0.1306801 0.6878535 -0.43461525 -0.1234794051 0.88149595099 1.17562434 -0.12134833505 0.0031359632519 -0.15612481237 
-0.119837575 0.682865 0.0516227 -0.11935723062 0.81382815002 1.1216488378 -0.117380675 0.9243375 1.179037 
-0.1167965 1.17243725 1.1072495 -0.113091175 0.6897535 0.34137075 -0.107283575 0.087947525 0.71817825 
-0.1046975631 0.010602220656 0.72677336943 -0.099334325 1.11051525 0.57244925 -0.098006475 0.80459625 0.76217975 
-0.09604065 0.82465475 1.164377 -0.093687187224 0.96306422938 -0.28908890893 -0.08077678573 0.82059913712 -0.2891309027 
-0.08152975 0.71247375 -0.149056225 -0.080484925 0.61809975 0.59296225 -0.0767614 1.072239 -0.246194675 
-0.074206676392 0.97940878214 -0.36608283016 -0.0714893 0.90633 -0.306562 -0.049975175 1.21513075 1.1133915 
-0.04853615 0.80029975 1.28037025 -0.047714875 0.96836925 1.19869625 -0.032522925 0.8642935 1.31026875 
-0.0119493 0.80111625 1.29161125 -0.010079255 0.858439 1.32765025 -0.0027826425 0.598375 0.58312 
-0.00218926625 1.2093105 1.12962825 -0.0012744406042 0.89802826042 1.3006760063 -0.000754139 0.88025 -0.28703225 
-0.0007457201795 1.0146825428 -0.39386998084 -0.00039639475 0.227013925 -0.7778245 -0.00039636225 0.64877875 0.0525202 
-0.0010220034825 0.59434698766 -1.0826669366 -0.0003962325 0.7739165 0.78916725 0.00021282310829 0.85414102315 -0.5878815458 
-0.0003960705 0.83766925 -0.259991 -0.000395876 0.337148 -1.32765025 -0.0003958435 1.146958 0.564723 
-0.0087053065487 0.93299630691 -0.28207565902 -0.00039574625 1.13629325 -0.16327845 -0.0021306501055 0.73343432436 -0.3564980598 
-0.0003956165 1.18290525 0.227461 -0.0003956165 0.68034 -0.863059 -0.0003956165 0.238540125 -1.074626 
-0.000395584 1.178479 -0.0148049625 -0.00039555175 0.370047 -0.523289 -0.00061491682191 0.49121874606 -1.2383396901 
-0.0014966140636 1.2404435834 0.72182467291 0.0032381837667 0.78099730853 1.012878386 -0.000138032925 0.78154425 0.89382475 
-0.0001380005 1.101972 1.19056525 -0.0001380005 1.28720475 0.93875725 0.0013518686288 1.2891917478 0.81905424857 
-0.000137968075 1.1494495 1.16679675 0.001354160282 0.87695017997 1.128815094 -9.267045e-05 0.8090705 1.30718625 
0.0002787350324 0.77859215856 1.2484720628 0.00684221 0.9889855 1.2108005 0.0115758925 0.86015025 1.326536 
0.0117636325 0.80111625 1.29161125 0.035218628359 0.86500407351 1.309486097 0.048350725 0.80029975 1.28037025 
0.050704775 0.96836925 1.19869625 0.06145195 1.21148425 1.1141275 0.075244875 0.62188875 0.59148125 
0.0761053 0.90632975 -0.306562 0.078128025 0.98154625 -0.36377125 0.080738025 0.712196 -0.148198125 
0.08293775 0.81876925 -0.2897765 0.09199875 0.819427 1.1707995 0.09294765 0.96694825 -0.2774265 
0.094350675 1.07527675 -0.246053825 0.09721475 0.80459625 0.76218 0.09854255 1.1149195 0.57875925 
0.11314805 0.69031725 0.34112725 0.116087425 0.9260825 1.17695825 0.11399085039 0.80404196796 1.1303732937 
0.11774395 0.081885225 0.70432875 0.118637575 0.004863655 0.7130975 0.11989465409 0.68422757388 0.057824329987 
0.12411 1.17611125 1.10784 0.12673085 0.90204275 1.17539875 0.12891765 0.63737775 -0.269797 
0.129888325 0.68785325 -0.43461525 0.131392975 0.65001075 0.3317065 0.12629381369 0.81311631994 -0.54743159278 
0.1334137 1.0590895 1.19543975 0.1353603 1.18882725 0.7433895 0.135989525 0.06720255 0.56958575 
0.13729625 0.63876675 0.6063805 0.14179808583 0.43995428163 -0.29660378409 0.143803425 0.2887155 -1.10877925 
0.144887775 1.0093305 1.1631905 0.145564725 0.4230525 -1.20029025 0.147556725 0 -0.15504485 
0.1478623 1.2775385 0.83874625 0.14846235853 0.20449261682 0.5041680215 0.15009093977 0.023455385408 0.57439894527 
0.15168071968 0.22080410223 0.56923173445 0.150599425 0.60444975 -0.190552725 0.15070025 0.5681345 0.3565615 
0.152237 0.2594845 0.5438875 0.15309535 0.1158812 0.62713475 0.1539185 0.58544025 0.4936015 
0.15522001786 0.39541711538 -0.28214572518 0.159892675 1.14606675 0.00657772 0.16052314988 0.050843281151 -0.25183323161 
0.16075075 0.00057578725 0.797363 0.161251725 1.15567075 0.223168325 0.166202825 0.0945533 0.7723735 
0.166854875 1.12156825 -0.127255775 0.16882755 0.0048422875 -0.098678525 0.17366162805 0.19185052688 0.61932896799 
0.172379125 0.2759305 0.5676745 0.1735221 1.0331575 0.5849955 0.174804625 0.5817375 -0.14517145 
0.17549185 0.0698931 -0.113702675 0.176707075 0.124494375 0.65871725 0.17528222128 0.44207371206 -0.33403664272 
0.177750375 0.38954825 -0.327227 0.18059417747 0.42844089005 -0.22468920811 0.1787285 0.106804075 -0.243469175 
0.18067945 1.120436 1.12069225 0.18127735 0.57859425 0.52047525 0.18206295 0.761389 0.1833142 
0.191389725 0.8762745 0.807102 0.194584875 0.94663 0.74235775 0.19535535 0.2997755 -0.8433935 
0.199532725 0.48409725 -1.00184525 0.1997536 0.76362625 0.3367725 0.20179613681 0.089991088085 -0.29381155377 
0.20297896071 0.22902521332 0.59777844959 0.2029568 0.2757655 0.568137 0.2031267 0.12139355 -0.21907045 
0.203283625 0.4217615 -0.5822985 0.20504189329 0.014475444317 -0.27078290043 0.206632875 0.59918425 -0.77830825 
0.2076455 0.128614775 0.6570275 0.2093672 0.6513375 0.33049475 0.21173305 1.00082175 -0.236117025 
0.21352293026 0.39796813106 -0.33109440359 0.212950225 1.0027495 1.1151885 0.2139541 1.05784525 1.13273575 
0.214140075 0.667084 0.60270425 0.21430321279 0.45109969478 -0.34210165287 0.21529076219 0.2256798523 0.49838584591 
0.216188375 0.7962655 -0.284375 0.21639335 0.641096 -0.26781375 0.21958093575 0.58331304215 0.51699882911 
0.22020358118 1.1965922015 0.92156852243 0.21966608301 0.58335638716 0.3623941029 0.221172975 1.04459925 0.0134704825 
0.22243203205 0.89869026143 0.1805260045 0.22481275 0.030042625 0.57170275 0.2248977 0.43359875 -0.24802085 
0.225608775 1.0719175 0.206579475 0.2276092 0.5941555 -0.184765275 0.227846425 0.90971075 0.43670825 
0.2305395 1.13240625 0.793577 0.2317420894 0.21796735403 0.55966988851 0.23109461536 0.25315423338 0.54215481714 
[...]
CELL_DATA 5218
FIELD FieldData 1
color 1 5218 double
3.5467295793 3.6096327278 4.3560773807 3.1675626687 3.3398619995 3.6579344337 4.5966192318 3.7964682617 3.4985810609 
3.2883751984 3.089372665 4.1662403788 3.3021600848 3.2951082241 3.2978369867 3.20844815 3.3222943527 3.773008686 
4.4051754277 4.2471435482 3.4445846674 3.3229115605 3.5454558071 4.5162378546 4.6068688427 3.4542605538 3.2800554606 
4.1409646368 3.3970105648 3.7819099703 4.6068610596 3.6747695763 3.4905469505 3.8366344275 3.3297106872 3.9018251458 
3.4379058656 3.7293301868 3.5295265355 3.466163115 3.4408888606 4.8396686385 3.1946298467 3.4737847104 3.5919083709 
3.475481693 3.6255391523 4.5097039835 5.0767109831 3.7251025221 5.6741881937 3.5779533903 4.8994304544 3.7576297324 
4.1125182564 3.4800751043 3.4821254041 3.6457224689 3.449567324 4.7065282638 3.6139769676 3.3121240141 3.3515278273 
3.5562604975 3.6935585282 3.6178564009 4.5810786741 4.3488691207 4.9799420786 3.2662709142 3.5142833451 3.2970677856 
3.2471270417 3.1188264956 3.18480713 3.3633632903 3.3692701423 3.8708519905 3.7063304457 3.0959790587 3.4732181976 
4.03768826 3.8242630342 3.7545974455 3.5252893933 3.7519507287 3.7892234869 3.2060496812 3.5428241321 3.5167658301 
4.3515406946 4.3207525323 3.5063071833 4.0265560198 3.1699712515 3.5170744377 3.5042240764 3.716783813 3.796127041 
3.5098760194 3.8224006134 3.6527221408 3.3416306201 4.9862694461 4.4601718061 3.1796396653 4.2504020723 3.3189555655 
3.7257209774 3.4546404456 4.6313259026 3.5144897683 3.9881120374 3.2828279343 3.5710233489 3.1931533439 3.5615472755 
3.7585940671 3.0939215114 3.9330643791 3.2359091581 3.5240783018 3.946138605 3.4397129237 3.5398448704 3.3272522578 
4.0067727684 3.4834453303 3.6581790249 3.9025180818 3.4963579145 3.5651050965 4.1621632631 3.5510732729 3.8539176161 
3.3827087922 3.749143538 5.652702021 3.6654791892 3.2266582432 3.1323350547 4.9104627465 3.7608656872 3.6412528882 
3.2348849654 3.5286132882 3.8243488428 3.4125686571 3.4564199137 4.6711454726 3.716820238 3.1748248661 3.5172879937 
3.0922832127 3.7102616519 3.844949562 3.4676147347 3.3760703294 5.8576035402 4.4031225057 3.8679357888 6.0465140988 
3.4796795345 3.2765661314 3.7924217458 3.1426080488 3.5694902791 3.3643046162 4.9905893854 5.0637329488 3.8047342858 
4.8488444316 4.0324098135 4.3028022153 3.9830502614 3.3690118556 4.3754291269 3.3428141974 3.3899204365 3.8907734862 
3.3662048566 4.786459755 4.6850851314 3.3890542 3.5620885859 3.5166402492 3.3330781632 3.6025131914 4.103278482 
3.5869223026 3.2944030614 3.5811023759 3.5768817839 6.1491091728 3.6495019985 3.6898104037 3.108463499 3.1423625642 
3.4728052666 3.8384268768 3.6850120222 3.7565742152 3.508587559 3.4572035712 3.796707618 4.4564415108 3.8413014203 
3.5237820033 4.5741777412 3.8002929707 3.6164407536 3.9433751387 3.3206299536 3.3932905911 3.471194032 3.4401562517 
4.0363113598 4.2030760096 3.5805378943 4.1029292435 3.3129226393 3.5258651797 4.5591052749 4.0275157624 5.9467957545 
3.8608857836 3.8011232915 3.4358488944 3.907442588 3.5955825633 3.6124224426 3.3756599687 3.8103921364 3.1929727555 
4.0594058828 4.0078154152 3.5477529495 3.2744855096 5.2402780156 3.233495656 4.4272932179 3.9433934618 3.7383920957 
3.5370312751 3.452976124 4.543945061 4.081625236 3.5900926183 4.8231102549 3.4804550137 3.6375202334 3.7130009906 
3.2148311686 3.3949423482 3.6295308956 3.2639750455 3.2908963949 4.0466045219 4.0824342726 3.2219857554 3.7421883056 
3.800261249 3.4335375633 3.5060166241 3.4190568386 3.2750577246 3.5145607328 3.6174148411 4.072867861 3.3432519934 
4.9577438313 4.0406910331 3.7722711657 3.7615772622 4.3383946668 3.1326168582 4.757408208 4.6300809264 3.3179762641 
4.7676599718 3.4409758952 3.7368165222 3.3012483929 3.8719727793 4.2494832264 3.1835594403 3.1868556081 3.290817736 
4.1894239568 4.4989550702 5.7912432479 3.1461306814 3.2714384009 3.2415693395 3.3494735981 3.4317194323 3.8724427663 
3.3175226944 3.5426591512 3.3476343651 3.4556128844 3.4921254084 3.5478514364 3.5270441972 3.7925214491 3.7662102103 
3.502352581 4.5705325338 3.1984931802 4.3174153107 4.2544894805 3.368313196 3.7733032962 3.6713015247 3.1826447782 
3.2941485411 3.6397313581 3.300430188 3.5897926297 3.4496347329 3.2611853343 4.0054705353 3.2315430907 3.4049003884 
3.1586741434 3.9603448491 3.3954736338 3.3865029807 3.2379350146 3.3570537684 3.4024825663 3.1512670691 3.2101284966 
3.3530458972 5.1744652869 4.6887984907 3.181441197 3.9682444153 3.607501976 3.1913799888 5.3056301399 3.6615461155 
3.8150430675 3.2057309289 4.1602435668 3.5487382881 6.129655257 4.9026659459 3.7742769886 3.7229295264 3.8913994906 
3.199432641 3.4204107655 3.4117699516 4.115496997 3.8155977147 3.7457733223 3.2476493126 3.2432018617 3.6922907537 
3.5101877789 6.4491793149 3.3249746541 4.0151695929 4.3903632565 3.8018730516 3.8131552296 4.978883262 3.1563455412 
4.6927879538 5.914604407 4.4042132454 3.4069571816 3.5216580546 3.3727243032 4.120877314 3.5066383221 3.2956866423 
3.2964108062 4.984307545 3.3288009421 3.4639910965 3.6857460607 3.594492707 3.8705727473 3.7759656164 6.9095988611 
4.9716490089 3.7904661595 3.2963467102 3.7383992448 4.6478868439 4.2372787934 3.911353214 3.8088481512 5.1384521186 
5.0605753447 3.8891192492 3.7758854442 3.3482083287 3.565985707 3.7060022217 4.200060781 3.5915991831 3.495742352 
3.3265102214 3.5388262252 5.3204190886 4.7895515893 3.9554548568 4.0313211525 3.5364887577 3.5675405534 3.6929484243 
4.4575004989 4.527040615 5.169347942 3.2950588976 4.0548544024 4.3337132551 4.7129203676 3.56999066 3.3406589943 
3.7981608086 3.8580638245 4.5324074463 4.2080028906 3.6712403687 3.0069567559 3.048285012 3.5211280832 5.7250425118 
3.6824561556 3.6923136883 3.5580309708 3.1132357247 3.3220683764 3.624623753 3.471883782 3.8974246193 3.5822225916 
3.4321251745 3.7021117992 3.3031845296 3.3286967504 3.6872105882 4.5463801022 3.1273266691 4.0310296787 3.7178695459 
4.0909103249 3.8993627023 3.7244521397 3.088079443 3.5266583564 3.4904616455 3.4814540773 3.4899781449 5.3958673611 
4.824768899 5.2107243405 5.0439785085 3.3753518238 3.3238432013 3.5022345959 4.7183668924 4.7540151773 4.546189214 
3.4351559804 5.0373554032 3.497932788 3.9856031578 3.3627648389 3.2902364019 4.0439864755 5.1937763193 6.4986209269 
3.285604295 3.1401656639 3.3284039415 4.6620658478 3.8883374643 4.1254273466 4.6579369141 3.5794585331 3.6750823761 
3.5165856578 3.4751450275 3.392935111 3.849276766 5.6397689559 5.1428853664 3.8125175282 5.2692478873 3.364088684 
4.0538588532 3.1133153532 4.5104588868 3.3606138627 3.4720224138 5.5150603075 3.7258171145 4.0351204732 6.7625492217 
4.1639421199 4.2555869025 3.358399668 6.4023086993 3.9298558487 4.2770493424 4.0377514763 3.8106603744 3.3323957341 
4.5937938407 3.464009595 3.980605471 3.0675502164 3.4511790145 3.1279497771 4.9967780409 3.334138665 3.6700440936 
3.3953255006 3.4534352387 3.8986259808 3.9163532186 3.2129340371 3.59677425 3.7124496206 4.06114494 3.4773133172 
3.9543494918 3.6494768656 3.173539514 4.3044248462 5.6424154218 4.4444567838 4.9994347091 3.9017742408 4.2495494371 
4.4470628993 3.5254806715 3.535425155 3.6858957685 3.1935860599 3.0846712905 3.4626496116 4.4811503788 3.2391869089 
3.2665239921 3.6885433878 3.254362886 4.7673504543 5.5186529281 3.6266475924 4.3184258913 3.3080423719 3.3365832728 
3.7803721627 4.388336421 4.6114098697 5.1845938288 4.7957355837 4.8561783585 3.06824868 3.4045320668 3.6803962905 
3.4486939719 3.6444707151 3.6292124315 3.4214002292 3.1169422105 3.5791450397 3.7068195549 3.7571236819 3.1105812445 
3.1691955277 3.4710966677 3.2986936396 3.7055864524 3.8590243893 4.1132757823 3.9258157661 3.6158266644 4.741617687 
3.8245960579 4.5391301862 3.8521770495 3.393915601 3.4361881526 3.2792485329 5.2696181879 3.5365248441 3.3075138808 
3.405144225 3.4484727699 3.5267652322 4.0048257206 3.4027511371 3.5744330356 3.1219783444 3.6377978925 3.5843872802 
3.2656241074 3.4046719449 3.0486523362 3.2141174255 3.1798250939 3.1977884638 3.8244530021 3.8222559871 3.620586657 
3.3272666686 4.4108417367 3.770502386 4.1827115617 5.9850013255 3.2800521419 3.3684305479 4.5820174981 3.5927026263 
4.6014361346 5.1707918391 3.3438276036 4.0234529914 3.9460709374 4.8906445363 4.1539270623 4.2382036849 3.9428452285 
3.7616911009 3.62468887 3.6378641096 4.5506976972 3.5170850332 3.5183597739 3.4437284686 3.3619570415 3.2511809377 
4.0763880287 3.2127138072 3.5470026249 3.6722389266 3.6617199316 4.1113792066 3.6929339543 3.540516918 3.4411248084 
3.8594803191 3.4097073702 3.7335000407 3.462921066 3.8404093108 3.4726123623 3.4217394997 4.0851600291 4.4017628487 
3.4002418658 6.1441713267 6.3881402093 4.8863664417 3.707432609 3.269444773 4.3963368137 3.8812467423 3.2722363841 
3.6504981756 3.6607888773 3.5451749834 3.6441379799 3.3570244097 3.951436964 4.4702639286 3.4139604 3.0707139724 
3.153036968 3.4243823549 3.518370752 3.5517056003 3.2615165226 4.0266996439 3.6635228415 3.1835321225 3.3832489083 
3.5393021654 3.532264714 3.041546702 3.870989201 3.5224609318 3.2395140964 4.3397715065 3.6927136639 4.0231507931 
3.2975074405 3.1854690149 3.5132242035 3.4970591626 3.7639330567 3.9539121792 3.4452506185 3.6794676485 3.1845063864 
3.7961876324 3.4361015651 3.3100703645 3.5942380149 3.3450497155 4.2331955606 4.0710961222 3.7015464937 3.4784079411 
3.2669924258 4.1255109374 3.5586824278 4.3805476834 3.2711164742 3.5593045213 3.8650797121 4.0389692877 3.5117884677 
3.6325898676 3.5545682299 3.8504070142 3.9005354271 3.9258761614 3.6520521199 3.8642303978 3.5492218064 3.254846998 
3.3280590896 3.0792336883 3.1677256303 3.4357698926 6.0860077564 3.3604738204 3.5582315682 3.9439625826 3.6822272033 
3.6759787395 3.4618169285 3.2865507629 3.3631310253 4.4468936585 3.8519446231 4.7811956807 3.8226495786 3.4344011165 
3.5302565876 3.3307974124 3.5799847014 3.798047452 3.4769098053 3.2765882702 4.9350328399 3.8512182141 3.4924775161 
3.4404105559 3.7996381938 3.3869796354 3.1137759274 3.9217968286 3.7355396309 3.4799983114 3.4523540919 3.5464587331 
3.2603062707 4.1290044406 4.3134011037 4.1654095911 3.4774600636 3.2537263659 3.5238954064 3.1315321811 3.4184448854 
5.626408908 7.6760202742 3.4513518416 4.2775244964 3.2637594688 3.2487645554 3.2418342083 4.4428909013 4.4406501901 
4.1852189546 3.4262288398 4.0360003774 3.6315283829 4.5744664183 4.5138251138 3.8983546871 3.3935650889 3.4812236743 
3.4760346619 3.3492191842 3.1638882094 3.3059457761 3.4573550879 4.5105241064 5.1378365693 3.5390053276 3.5448160176 
4.3616911755 4.0909325059 3.9089403495 3.1933204097 3.6289599694 3.0958563586 3.4434494316 4.1220144911 3.758969109 
3.6131438385 3.545111594 4.0845668465 4.3246206561 3.3346191429 3.1621946577 4.0036790183 3.5959653952 3.1275026078 
3.9714050773 3.3439403574 3.1164035551 3.8931384311 3.1072225355 3.7141022017 3.4973317987 3.2158923986 3.5581879923 
3.3431204991 3.6527383211 4.2037272757 4.0440158172 3.6424477858 3.3563695585 3.9361593223 3.3744498938 4.2464022587 
3.1284903489 3.5389817594 3.3793226608 3.3397900927 3.9590257836 3.8407957917 3.8013353789 3.198180031 3.4642739066 
3.9333283732 4.6025880171 3.9825803718 3.94637227 4.5295290879 4.3758402609 4.0716774962 3.4204429691 4.7444829029 
3.6180436536 4.3698126422 4.7726084497 3.7996684528 5.4834739524 3.4491118613 3.3971506762 3.6747242052 3.8595392031 
3.8890091853 3.6207467808 3.5414456514 3.8807893948 3.5346048655 3.6330149253 5.094725195 3.645963895 4.2770855248 
3.6673688067 3.6498145732 3.7215570682 4.444637608 4.3681063521 5.0425869235 3.8856773075 3.034383679 4.0192558424 
4.0060140714 3.3113557943 3.569370811 4.170561436 3.5639570944 5.8730685523 6.1524897065 3.6887648525 4.4219455314 
4.2123454009 5.5876331521 4.096742645 4.288936813 4.0823286418 3.3830879418 4.0490778268 3.2171768379 3.0734674367 
3.2432107582 4.3959893737 4.0945568077 3.345588354 3.5167966652 3.9452031021 3.9289121677 5.1528361997 3.3843015721 
3.298212855 3.2492655337 3.6678533918 3.3596356956 3.6090588759 4.1854054703 3.4780771705 3.4453524878 3.1446286771 
3.7025716108 3.6897667213 4.0209198839 3.5325896251 3.4295185647 3.5509683702 3.7948176406 4.1042441319 3.859533509 
3.4900203203 3.5218119373 3.501690072 4.7128474981 3.3466875438 6.3925095939 3.5839841056 3.3518897084 3.6010956148 
4.7503258437 3.6740426696 3.6058446228 5.0837301235 3.5403136792 3.8140670219 5.2054193801 4.0650826244 4.1468313743 
4.4455648861 4.2733910234 3.0854419471 4.2587144345 4.3812418096 3.0876125025 3.7936953637 3.4373978322 3.6402572392 
4.067399286 3.5097293142 3.1311399644 3.9468190335 3.6191612806 3.5031745065 3.3599375993 4.7274179077 4.3868778277 
3.5953991387 3.1339256031 3.5745514994 3.2557094601 3.4331226865 4.4623085675 3.4768752697 3.3840672628 3.8880223426 
3.0848375162 4.3280798254 4.3210571251 3.6540181225 3.601152398 3.7438343582 3.9762629278 4.2915807519 4.2438611122 
4.2791376224 3.4983473583 3.5319522372 3.1225668322 5.4373360716 3.295579742 3.4396053659 3.640604016 3.9455481934 
3.4504312524 4.3965156488 4.5647840613 5.580375208 5.0530209884 4.1954390528 4.034316555 3.9672711216 3.3413600615 
3.7827857216 3.283343648 3.9289019062 3.3548854975 4.1843327755 4.0467796235 3.6608170837 7.1805327669 3.8700915788 
3.4388902654 3.414353689 3.2659260976 3.4523266271 3.6285352771 5.9397697437 6.0766556383 3.3777540942 3.3412665447 
4.1639399136 3.5617900449 7.1200735881 3.9054480648 3.7916691397 3.8513844394 3.5182876666 3.5467029464 3.1899920024 
3.8053184237 3.4023749398 3.2786618231 3.6310201337 3.6964809188 4.1476919238 6.6602063966 3.8039136969 3.6328804325 
3.7644152606 3.2629425483 4.5868177225 5.042538739 3.9304120334 4.0800785473 3.7522227866 3.7211048305 4.3041934478 
4.7917593554 3.3713337428 3.6331449572 3.5817919641 3.7856614376 3.5346372092 3.4310127273 4.5440123379 3.6206192848 
3.5750935846 3.7003813579 3.5979013089 3.6112951946 3.7623282293 3.743445312 3.4313043263 3.9951247386 4.0754713459 
3.5785677973 3.7736991612 5.0379733309 3.8795394133 3.4875649816 3.1849863011 3.3961188975 3.4336348708 3.3343558098 
3.5626853748 4.2371123789 3.6348830549 3.5012229144 4.4106495575 3.8096137884 3.1178368038 5.0752241553 3.9669395651 
4.3048155017 3.3898711624 4.4242659484 4.3777560734 4.0410206315 4.7503623733 5.0026118008 3.325995854 3.6172469203 
3.7331790981 4.1025284324 5.08307997 3.4043225456 3.051232749 3.1831561379 3.5682948765 3.7417779804 4.0610536227 
3.2816610335 3.8749225861 4.6306478743 3.2426053925 3.4309036965 4.4623719264 3.5671453656 4.1418043697 3.6023257317 
3.5591214184 3.597872779 3.9651908355 3.8391860614 3.5717914933 4.3640037588 4.3411977189 3.5126982962 3.2392271663 
3.1050049599 3.1411259719 5.5603915129 3.7855576459 3.7082769934 3.5634150602 3.3177368598 3.6891617096 3.4431356342 
3.2767935623 3.2536684356 3.5119385297 3.251545803 3.4601397496 3.7417522344 3.2582921795 3.2599004595 4.5286793339 
3.9560178847 3.3951014327 3.9462106446 3.5502721583 3.6460259093 3.5893436513 3.8348739885 3.9950030385 3.6297033981 
4.801828671 3.3927402692 4.0242757765 4.0754411688 3.3594888205 3.2061482205 3.9309823091 3.3074717447 3.877582214 
4.3225290648 3.4412663708 3.7189506836 3.7662890719 4.0490715336 3.2533654814 3.9135044066 3.4661745627 3.1160725359 
3.947677137 3.5792207304 3.7195121839 3.5521762962 3.6632778701 3.2825110879 3.6495830251 3.4573427706 3.9951247077 
4.8504064869 7.8112878631 3.7703974331 7.74416292 3.6188537293 3.9613406182 3.6955555071 3.5037363777 3.3582282314 
3.083975623 3.056456311 3.3887894155 3.9290066339 3.9824155785 3.4952480203 3.922280798 3.7740111628 3.6811648492 
3.7142375718 3.4744410921 3.4057534848 3.1037246789 5.134958727 3.1578611421 3.1349275101 3.2694949437 3.7125494696 
4.2380862909 3.2053655147 3.8902321337 3.3506383265 4.4146762352 4.0146723564 3.8276142313 3.8315055132 3.7341214199 
3.8361131417 4.9262173937 3.6816231188 3.6844275506 5.9003494898 4.1122814507 4.102300859 3.3696892213 3.3889427406 
3.635808501 3.8179479439 3.603300159 3.8645991711 3.8827969173 3.3159756089 3.4147896249 4.0087371337 3.9169132891 
4.3298122248 4.183739984 3.7464202891 3.149696388 3.3921042882 3.2458405193 3.2243714874 3.3280605983 3.8561270196 
4.6217322939 6.9966092469 4.5596877504 4.492799051 3.8535737549 3.9252697726 3.208194412 3.7382109445 3.4435683167 
3.5621099585 3.8287824104 3.3987104655 3.9877578536 3.8354841334 3.466838207 3.4669508123 3.3054504538 3.7492889421 
3.3456788857 3.4229906816 3.6460501245 3.3787990523 3.3469333173 3.3465114335 3.5069183847 3.7735812725 4.0790364424 
3.4967158576 3.9153487518 3.3868778876 3.5392791733 3.1742819377 3.4299058855 3.303315123 3.3387292379 3.6186282019 
3.9147587318 4.0695806646 3.3441421277 3.7702667799 3.6177617887 3.9017950422 3.5448630559 4.0073054894 4.466082298 
3.3669179023 6.2377109071 4.6095032851 3.3674348463 3.6290806426 4.3076035994 3.467791564 6.2939234045 3.9429848222 
3.3059679815 3.4670331395 3.0162268083 3.2941803951 3.5951052669 3.8129115847 3.4693976867 3.4691618358 3.5755042796 
5.2376586513 5.4792769368 3.9424872912 4.738128423 4.5032130134 3.9153985641 3.4218672628 3.5974315295 3.3198012595 
4.2117818488 3.084528071 3.3298634911 3.6354423053 3.2865041448 4.7249364595 3.5234208327 3.5947962277 3.6285471308 
3.6528345469 4.9235617618 3.910883741 3.2304647145 3.657252163 3.39570027 3.5462702454 4.1981691246 3.6205599109 
3.3910095788 3.2430955905 4.101867062 3.9874076384 4.3031957289 5.4172419545 4.9269256098 4.7989834023 3.7102663702 
3.7965541859 3.4046899589 3.3077201535 3.4345197384 3.4383217582 3.6475717281 3.7737113614 4.693417325 3.6011716409 
3.6013894897 4.0177739437 3.564033004 3.7723830213 3.944263145 3.3240459504 3.1021480999 4.0548546575 3.310460796 
3.8864109811 4.0291602115 3.740332828 3.7652303908 3.8930410603 4.5118454922 3.0734420893 3.1793871255 3.4234871704 
3.2878169954 4.2699333952 3.2061018608 3.6545023881 3.4387328641 3.5854072169 3.53644131 3.2338653425 3.4059696618 
3.6967587639 3.5082387278 3.6204567229 4.3705027652 3.8468990555 5.450196622 5.6202244209 3.5530423261 3.3257294803 
3.7038547597 3.618301191 3.4713875065 3.5303847527 4.1477414701 4.1837329262 4.0785893205 3.8645623585 3.3111335834 
3.7242790508 3.3564102836 4.4366852328 3.6071195507 4.5092696692 3.7204520318 3.1414029632 3.8163667389 3.1325239501 
3.6886646265 3.3716969471 4.2767000474 3.9936089183 3.5887106478 3.3528669437 3.5391073479 3.3087580913 3.8866819621 
3.8411713919 4.3530045702 3.8176928926 3.75627485 3.7906623474 3.4607232966 3.7965047291 3.2993386766 4.6301054279 
3.3125852058 3.3165017876 3.5695252178 4.067720684 3.5987711769 4.8452873846 4.8194845493 3.9264643151 3.1667807652 
4.0115934702 3.1819377963 3.4090055423 3.2258852635 3.6620614811 3.4361398776 3.4378743905 3.3199867017 3.6471559721 
3.5147040652 3.8641134436 3.5890124058 3.7654415008 3.7735807578 3.5881335617 3.5932002127 3.3387427752 3.9258255325 
3.4937749689 3.3976142593 3.7110270953 3.2221215476 4.4862642031 3.6776915717 3.7806486003 3.5023396165 3.3935761691 
3.3125387804 4.1449242566 3.73417733 3.5820314979 3.2935499237 3.3306357408 3.565609364 3.6728780039 3.6321128345 
3.7788818487 3.3696161352 3.701768383 3.0790054454 3.6198518593 3.6668522873 3.6928322547 3.7363933804 3.5340395949 
3.8856089128 3.7196835118 3.4304396759 3.6547320559 3.1720743345 3.1551394803 3.3671479559 4.807476631 4.578324032 
3.1991846833 3.9532003634 4.013900809 3.7826663271 3.1619725398 3.8638218586 4.2207507213 4.6086514937 3.6645976538 
3.4892311919 3.6430039975 3.8080150952 3.4626618897 3.625088613 3.3855174486 3.3345099723 3.3854289668 3.9562776388 
3.3343433284 3.1682344714 3.638540736 3.9865046157 4.8958702336 3.8282093312 6.0208247196 6.4543291245 5.9490170781 
4.1170737924 3.7253723424 3.6530256005 6.245143813 4.3479930673 3.3377982487 3.6215688996 3.3858675281 3.4168941212 
3.4168272953 3.4443753202 3.464611647 3.4536658958 4.310927562 4.7945882309 3.6492117278 3.6945025906 3.5868773278 
3.5454483583 3.821269814 4.576656755 3.7966452622 4.5671939589 4.3580041618 4.3883391535 3.6461537023 3.7929399491 