# vtk DataFile Version 5.1
vtk output
ASCII
DATASET UNSTRUCTURED_GRID
POINTS 2206 double
-0.75 0 0.75 -0.75 1.0714285851 0.75 -0.75 1.2857143402 0.75 
-0.75 1.5 0.74974801711 -0.75 0.21428570747 0.53571429253 -0.75 1.0714285851 0.53571429253 
-0.75 0.21428570747 0.32142856121 -0.75 0.6428571701 0.32142856121 -0.75 0.8571428299 0.32142856121 
-0.75 1.0714285851 0.32142856121 -0.75 0 0.10714285374 -0.75 0.6428571701 0.10714285374 
-0.75 1.2857143402 0.10714285374 -0.75 1.5 0.10714285374 -0.75 0 -0.10714285374 
-0.75 0.21428570747 -0.10714285374 -0.75 0.42857141495 -0.10714285374 -0.75 0.6428571701 -0.10714285374 
-0.75 1.2857143402 -0.10714285374 -0.75 1.5 -0.10714285374 -0.75 0.8571428299 -0.32142856121 
-0.75 1.0714285851 -0.32142856121 -0.75 0.6428571701 -0.53571429253 -0.75 1.0714285851 -0.53571429253 
-0.75 0 -0.75 -0.75 0.21428570747 -0.75 -0.75 0.42857141495 -0.75 
-0.75 1.0714285851 -0.75 -0.75 1.2857143402 -0.75 -0.75 1.5 -0.75 
-0.53571429253 0 0.75 -0.53571429253 0.8571428299 0.75 -0.53571429253 0.21428570747 0.53571429253 
-0.53571429253 0.8571428299 0.53571429253 -0.53571429253 1.2857143402 0.53571429253 -0.53571429253 1.5 0.53571429253 
-0.53571429253 0.21428570747 0.32142856121 -0.53571429253 0.42857141495 0.32142856121 -0.53571429253 1.2857143402 0.32142856121 
-0.53571429253 1.5 0.32142856121 -0.53571429253 0 0.10714285374 -0.53571429253 0.42857141495 0.10714285374 
-0.53571429253 0.8571428299 0.10714285374 -0.53571429253 1.0714285851 0.10714285374 -0.53571429253 0.8571428299 -0.10714285374 
-0.53571429253 1.0714285851 -0.10714285374 -0.53571429253 0 -0.32142856121 -0.53571429253 0.21428570747 -0.32142856121 
-0.53571429253 0.42857141495 -0.32142856121 -0.53571429253 0.6428571701 -0.32142856121 -0.53571429253 1.2857143402 -0.32142856121 
-0.53571429253 1.5 -0.32142856121 -0.53571429253 0.6428571701 -0.53571429253 -0.53571429253 0.8571428299 -0.53571429253 
-0.53571429253 1.2857143402 -0.53571429253 -0.53571429253 1.5 -0.53571429253 -0.53571429253 0 -0.75 
-0.53571429253 0.21428570747 -0.75 -0.53571429253 0.42857141495 -0.75 -0.53571429253 0.8571428299 -0.75 
-0.32142856121 0 0.75 -0.32142856121 0.6428571701 0.75 -0.32142856121 1.0714285851 0.75 
-0.32142856121 1.2857143402 0.75 -0.32142856121 0.21428570747 0.53571429253 -0.32142856121 0.6428571701 0.53571429253 
-0.32142856121 1.0714285851 0.53571429253 -0.32142856121 1.2857143402 0.53571429253 -0.32142856121 0.21428570747 0.32142856121 
-0.32142856121 0.42857141495 0.32142856121 -0.32142856121 1.0714285851 0.32142856121 -0.32142856121 1.2857143402 0.32142856121 
-0.32142856121 0 0.10714285374 -0.32142856121 0.42857141495 0.10714285374 -0.32142856121 1.0714285851 0.10714285374 
-0.32142856121 1.2857143402 0.10714285374 -0.32142856121 1.0714285851 -0.10714285374 -0.32142856121 1.2857143402 -0.10714285374 
-0.32142856121 0 -0.32142856121 -0.32142856121 0.21428570747 -0.32142856121 -0.32142856121 0.42857141495 -0.32142856121 
-0.32013350394 0.6428571701 -0.32080307001 -0.32142856121 1.0714285851 -0.32142856121 -0.32142856121 1.2857143402 -0.32142856121 
-0.32142856121 0.21428570747 -0.53571429253 -0.32142856121 0.42857141495 -0.53571429253 -0.32142856121 1.0714285851 -0.53571429253 
-0.32142856121 1.2857143402 -0.53571429253 -0.32142856121 0 -0.75 -0.32142856121 0.6428571701 -0.75 
-0.32142856121 1.0714285851 -0.75 -0.32142856121 1.2857143402 -0.75 -0.10714285374 0 0.75 
-0.10714285374 0.42857141495 0.75 -0.10714285374 0.8571428299 0.75 -0.10714285374 1.5 0.75 
-0.10714285374 0.21428570747 0.53571429253 -0.10714285374 0.42857141495 0.53571429253 -0.10714285374 0.8571428299 0.53571429253 
-0.10714285374 1.5 0.53571429253 -0.10714285374 0.21428570747 0.32142856121 -0.10714285374 0.6428571701 0.32142856121 
-0.10714285374 0.8571428299 0.32142856121 -0.10714285374 1.5 0.32142856121 -0.10714285374 0 0.10714285374 
-0.10714285374 0.6428571701 0.10714285374 -0.10714285374 0.8571428299 0.10714285374 -0.10714285374 1.5 0.10714285374 
-0.10714285374 0 -0.10714285374 -0.10714285374 0.21428570747 -0.10714285374 -0.10714285374 0.42857141495 -0.10714285374 
-0.10714285374 0.6428571701 -0.10794344534 -0.10714285374 0.8571428299 -0.10714285374 -0.10714285374 1.5 -0.10714285374 
-0.10714285374 0.8571428299 -0.32142856121 -0.10714285374 1.5 -0.32142856121 -0.10714285374 0.21428570747 -0.53571429253 
-0.10714285374 0.42857141495 -0.53571429253 -0.10714285374 0.8571428299 -0.53571429253 -0.10714285374 1.5 -0.53571429253 
-0.10714285374 0 -0.75 -0.10714285374 0.6428571701 -0.75 -0.10714285374 0.8571428299 -0.75 
-0.10714285374 1.5 -0.75 0.10714285374 0 0.75 0.10714285374 0.42857141495 0.75 
0.10714285374 0.8571428299 0.75 0.10714285374 1.5 0.75 0.10714285374 0.21428570747 0.53571429253 
0.10714285374 0.42857141495 0.53571429253 0.10714285374 0.8571428299 0.53571429253 0.10714285374 1.5 0.53571429253 
0.10714285374 0.21428570747 0.32142856121 0.10714285374 0.6428571701 0.32142856121 0.10714285374 0.8571428299 0.32142856121 
0.10764043398 1.5 0.3214150267 0.10714285374 0 0.10714285374 0.10714285374 0.6428571701 0.10714285374 
0.10714285374 0.8571428299 0.10714285374 0.10714285374 1.5 0.10714285374 0.10714285374 0 -0.10714285374 
0.10714285374 0.21428570747 -0.10714285374 0.10714285374 0.42857141495 -0.10714285374 0.10714285374 0.6428571701 -0.10714285374 
0.10714285374 0.8571428299 -0.10714285374 0.10714285374 1.5 -0.10714285374 0.10714285374 0.8571428299 -0.32142856121 
0.10714285374 1.5 -0.32142856121 0.10714285374 0.21428570747 -0.53571429253 0.10714285374 0.42857141495 -0.53571429253 
0.10714285374 0.8571428299 -0.53571429253 0.10714285374 1.5 -0.53571429253 0.10714285374 0 -0.75 
0.10714285374 0.6428571701 -0.75 0.10714285374 0.8571428299 -0.75 0.10714285374 1.5 -0.75 
0.32142856121 0 0.75 0.32142856121 0.6428571701 0.75 0.32142856121 1.0714285851 0.75 
0.32142856121 1.2857143402 0.75 0.32142856121 0.21428570747 0.53571429253 0.32142856121 0.6428571701 0.53571429253 
0.32142856121 1.0714285851 0.53571429253 0.32142856121 1.2857143402 0.53571429253 0.32142856121 0.21428570747 0.32142856121 
0.32142856121 0.42857141495 0.32142856121 0.32142856121 1.0714285851 0.32142856121 0.32142856121 1.2857143402 0.32142856121 
0.32142856121 0 0.10714285374 0.32142856121 0.42857141495 0.10714285374 0.32142856121 1.0714285851 0.10714285374 
0.32142856121 1.2857143402 0.10714285374 0.32142856121 1.0714285851 -0.10714285374 0.32142856121 1.2857143402 -0.10714285374 
0.32142856121 0 -0.32142856121 0.32142856121 0.21428570747 -0.32142856121 0.32142856121 0.42857141495 -0.32142856121 
0.32142856121 0.6428571701 -0.32142856121 0.32142856121 1.0714285851 -0.32142856121 0.32142856121 1.2857143402 -0.32142856121 
0.32142856121 0.21428570747 -0.53571429253 0.32142856121 0.42857141495 -0.53571429253 0.32142856121 1.0714285851 -0.53571429253 
0.32142856121 1.2857143402 -0.53571429253 0.32025080661 0 -0.75 0.32142856121 0.6428571701 -0.75 
0.32142856121 1.0714285851 -0.75 0.32142856121 1.2857143402 -0.75 0.53571429253 0 0.75 
0.53571429253 0.8571428299 0.75 0.53571429253 0.21428570747 0.53571429253 0.53571429253 0.8571428299 0.53571429253 
0.53571429253 1.2857143402 0.53571429253 0.53571429253 1.5 0.53571429253 0.53571429253 0.21428570747 0.32142856121 
0.53571429253 0.42857141495 0.32142856121 0.53571429253 1.2857143402 0.32142856121 0.53571429253 1.5 0.32142856121 
0.53571429253 0 0.10714285374 0.53571429253 0.42857141495 0.10714285374 0.53571429253 0.8571428299 0.10714285374 
0.53571429253 1.0714285851 0.10714285374 0.53571429253 0.8571428299 -0.10714285374 0.53571429253 1.0714285851 -0.10714285374 
0.53571429253 0 -0.32142856121 0.53571429253 0.21428570747 -0.32142856121 0.53571429253 0.42857141495 -0.32142856121 
0.53571429253 0.6428571701 -0.32142856121 0.53571429253 1.2857143402 -0.32142856121 0.53571429253 1.5 -0.32142856121 
0.53571429253 0.6428571701 -0.53571429253 0.53571429253 0.8571428299 -0.53571429253 0.53571429253 1.2857143402 -0.53571429253 
0.53571429253 1.5 -0.53571429253 0.53571429253 0 -0.75 0.53571429253 0.21428570747 -0.75 
0.53571429253 0.42857141495 -0.75 0.53571429253 0.8571428299 -0.75 0.75 0 0.75 
0.74937100407 1.0714285851 0.74993365454 0.75 1.2857143402 0.75 0.75 1.5 0.75 
0.75 0.21428570747 0.53571429253 0.75 1.0714285851 0.53571429253 0.75 0.21428570747 0.32142856121 
0.75 0.6428571701 0.32142856121 0.75 0.8571428299 0.32142856121 0.75 1.0714285851 0.32142856121 
0.75 0 0.10714285374 0.75 0.6428571701 0.10714285374 0.75 1.2857143402 0.10714285374 
0.75 1.5 0.10714285374 0.75 0 -0.10714285374 0.75 0.21428570747 -0.10714285374 
0.75 0.42857141495 -0.10714285374 0.75 0.6428571701 -0.10714285374 0.75 1.2857143402 -0.10714285374 
0.75 1.5 -0.10714285374 0.75 0.8571428299 -0.32142856121 0.75 1.0714285851 -0.32142856121 
0.75 0.6428571701 -0.53571429253 0.75 1.0714285851 -0.53571429253 0.75 0 -0.75 
0.75 0.21428570747 -0.75 0.75 0.42857141495 -0.75 0.75 1.0714285851 -0.75 
0.75 1.2857143402 -0.75 0.75 1.5 -0.75 -0.70196254786 0.21047170458 0.68039448821 
0.53571429253 0.62759065283 0.53571429253 -0.6415106505 0.63518346484 0.53571429253 -0.65471710642 0.69335352989 0.63812152816 
-0.69142680374 0.057974465596 0.51223455751 0.63773494961 0.087281505962 -0.25289779627 -0.68537516455 1.4421212264 0.33490110623 
-0.68464188253 0.066188153508 0.17911208602 -0.6829490996 0.57206106751 0.16851235654 -0.67388597468 0.94734531355 0.18512199082 
-0.65924252221 0.94101401565 0.0073590545077 -0.68113000584 0.5759053115 -0.19504934102 -0.6912435611 1.4354081639 -0.17917919752 
0.22123238636 0 0.61908249606 -0.42511386256 0.97432422508 -0.64476983351 0.4588841632 0.93962016252 0.64883175786 
0.43208941609 0.96459427318 -0.64973065762 0.63776813357 0.5555825115 -0.43146838463 -0.62051759725 0.55320880234 -0.62767826423 
-0.66800181856 0.91190997472 -0.69542722877 -0.60978853106 0.95205671175 -0.63349475185 -0.51975889547 0.93730914903 0.6692842906 
-0.22722154859 0.52482793557 -0.65987415236 -0.51636133447 0.55261655095 0.19147689056 -0.53457900998 0.94489792639 0.18474362575 
[...]
CELL_DATA 6132
FIELD FieldData 1
color 1 6132 double
3.7511155603 4.17052027 3.4127319214 4.1006447994 3.82356234 4.2014619502 3.4994600099 3.2463789002 3.9677729796 
3.7591294244 3.578700874 3.9749993554 4.3441420067 3.7177648153 3.9567481159 3.4133836257 3.1583936243 3.7415216714 
5.0967484524 3.5989830031 3.4934126915 4.18595867 3.8406793356 3.8825255443 3.8828657348 3.9446284156 3.8425750907 
4.0651235865 3.4989460489 4.0446838099 3.2501357767 3.3256367486 3.7992967215 3.267338023 3.4006626389 3.9359552935 
4.4950053509 4.211461066 3.6036200625 3.422707231 3.3270360952 4.3715573897 3.6371738672 3.482176681 4.2522746757 
3.1699605989 3.9199226567 3.4254207385 3.5879387074 4.1823268602 3.0582721386 3.5069811393 3.9512463095 3.8053515364 
3.8717647481 3.6799814421 3.6886334876 3.2747970115 3.4701422556 3.6151134043 3.5813419674 3.3841801098 3.8986324999 
3.4718669425 3.792508617 3.6418895017 3.7023272531 3.8905756298 3.9266406286 3.9491829397 3.7665033316 3.2236569485 
3.7755582902 3.5374129104 3.5301026363 3.8722033919 3.6566270531 4.2374169757 3.2749547994 3.3368765036 4.019327532 
3.4275835283 3.557842609 3.353762656 3.9932801702 3.3082015326 3.9552759756 3.5126313336 3.8586754968 3.656617372 
3.7975681833 3.823687271 3.711318158 3.2922476413 4.0336187213 3.1523992945 3.4164234123 3.6827186706 3.6761171352 
3.7311117327 4.0735389268 3.3320085877 4.0291797002 3.8851198204 4.0532222811 3.9537103213 4.0278515464 3.7083361589 
3.7039647831 3.7526256005 3.6475632293 3.5652351258 3.808550201 3.7455237729 3.4700632795 3.453114486 3.7034422601 
3.9608545776 4.3118991981 3.6602178093 4.0902610373 3.4910256571 3.2866748648 4.0556232504 3.8358530341 3.7449054347 
3.4513053675 3.6883313728 3.7607870042 3.8509697455 3.9976182984 3.4854538983 3.9186875451 3.5942135551 3.9139049175 
3.5727893807 4.1679999395 4.2234838437 3.9926428908 3.6225137202 3.6900946325 4.0389305937 3.3491981496 3.9132361105 
3.9525569609 3.4422205336 4.1402984246 4.5518825569 3.1302063429 4.125111389 3.3958685132 3.4876487236 3.2952553464 
3.3515716609 4.2478169191 3.394088987 3.6044334859 4.3612802046 4.7515722404 3.8296620968 3.5780511163 3.7226757427 
3.1945263797 3.6492059835 3.9025667092 3.602703137 3.0659523465 3.4277699006 3.3480111475 3.8565325201 3.0707404542 
4.2955109101 3.2466797137 3.6832797347 3.0594282307 3.3102997892 3.835172958 3.6796726354 4.266291915 3.6505085425 
3.3642392596 3.7464927874 3.4901002814 3.3736084657 3.6693094814 3.335256301 3.3560546841 3.867918253 3.4012706417 
3.182418952 3.9234938539 3.777719121 3.7189955671 3.3384927662 3.9159701244 3.8177460204 3.6287016728 3.4180592811 
3.1826182281 3.1644479272 4.6116765032 3.9659573282 4.4884018933 3.683527385 3.879962238 3.5005520533 3.2646375217 
3.2272270995 3.8961912856 3.1900573103 3.8570178886 3.7938396376 3.7474598623 3.7584997918 3.8736491411 3.350872396 
3.952420841 3.5147905238 4.0888881444 3.5522524425 4.8080983704 3.3895462519 4.137696162 3.3426295404 3.364608707 
3.4856473649 3.4385456944 3.372297145 3.2752253216 4.0331967747 3.7319627109 3.4596675458 3.2852886714 3.4937895985 
3.0806348819 4.3349063818 3.5005969931 3.3765132798 3.5720908701 3.5153752023 3.211746895 3.2885916608 4.2756277577 
4.2508509557 3.4778595645 3.4746675816 4.2443891353 3.5780362286 3.2541773585 3.3895693278 3.2884537685 3.5585842811 
3.9773822837 4.4847344351 4.2885897145 3.7461629252 3.1167527466 4.7430770773 3.7704695318 3.1071757082 3.5253405127 
3.520824068 3.2303003496 3.3182220719 3.3652629046 3.2787651906 3.2409438096 3.5330510789 3.108476982 4.2808360052 
3.3750744679 3.4648698872 4.1125643744 3.3718085535 3.2612089549 3.3886332816 3.6958428321 4.2831939683 3.9201747994 
3.1298352473 3.149656745 3.2173891678 3.0720291215 3.4582764947 3.3912022396 4.4410743418 4.2672548198 3.8919272619 
3.8101478 3.1667764734 4.0513515759 3.6461456769 4.1413593674 3.7515808589 3.7142067513 3.5006706846 3.3259298951 
3.4604679922 3.4122343009 3.3084424718 3.4662464623 4.2002523155 3.1448535856 3.3523271862 4.207048825 3.3593871225 
3.3924454985 4.029850687 3.7032643685 4.3938438807 4.0978718832 3.2990890603 3.3423104891 3.4171508587 3.2682320398 
3.7370159666 3.960485594 3.0641236133 3.5965498156 3.5588038788 3.4361795777 3.0985328529 4.3161474372 4.6148141599 
4.0070682782 3.94182128 4.0150786166 4.0623664553 4.452731184 3.7634569963 3.4371738435 3.5560786795 3.0303622092 
3.3563519981 3.4041898844 3.474218788 3.2194395453 3.7802529016 3.4865893606 3.3785052024 3.5310702204 3.6126368524 
3.2428508724 4.4052114117 3.5605081011 3.4885179891 4.0858643593 3.2461915647 3.8441175737 3.5178285142 3.438406358 
4.2939413968 3.2446882216 3.3459718597 3.370170059 3.1444637806 3.9134472274 3.6679783278 4.1652385226 3.543615241 
3.4662681547 4.0230867229 4.7691129022 4.2094590282 3.4777083383 3.3217052841 3.5376580417 3.3205075136 3.2250608998 
3.132554906 4.3325734568 3.8358949931 5.9521477784 3.1060722747 3.4206010434 3.2306449205 3.2580246726 4.2859353203 
3.7107348758 3.7155396663 3.6435855919 5.0479463807 3.9873404237 4.3381674798 3.3211746966 3.6873302851 4.601967402 
3.4732877687 4.4541602689 5.0073508792 3.1959675851 3.8610638558 3.5072151433 4.2825038454 3.539178106 3.2875031285 
3.2846289361 3.2925678255 3.9727837506 4.9399589895 4.133982113 3.6901215871 3.3400323057 3.4384708357 3.5610064963 
3.6947115085 3.8506648322 3.6235916571 3.6519786978 3.5853872091 3.9325610248 4.1961653682 3.5846265566 3.717983144 
3.8309082369 3.9205245286 4.2360185891 3.9228102531 4.1561976316 3.5624451731 4.2618381234 3.542853403 3.4793195491 
3.4585395307 3.8862128481 4.3538888896 3.8411006444 3.5541546193 3.7792682878 3.3123045927 4.1041228177 3.9640556967 
3.2765677629 3.5654145095 3.3396628682 3.3675478991 3.8211540088 3.3916502108 4.0707188033 3.573901002 3.5346104741 
3.4539302077 3.8575820003 3.8812446361 3.8576860388 3.7374286502 3.7657783092 4.4582449267 4.156198125 3.5330216769 
3.3320605631 3.913175642 3.4323279432 4.1364171799 3.6969262058 3.8390902409 3.9228110945 3.8238505352 3.3205375453 
3.2910686549 3.8645318483 3.7848926434 4.0188764375 4.6100908492 3.5544966398 3.4739672088 3.5549630589 3.4067764504 
4.0536061849 3.2854556434 4.2407582272 3.8552233774 3.5870799495 3.519538577 4.0599332485 3.7629636289 3.9225964987 
3.8382131211 3.7271784305 4.5227702436 3.4563329243 3.4713964918 3.2913832391 3.8526150647 3.9273928262 3.3537355848 
3.2126848747 4.0071555766 4.8427028036 3.6723778348 3.528414018 3.6944398615 4.3520508298 3.9036261951 3.0798608839 
4.0029962336 3.4423782913 4.086164353 3.7078265228 3.3809406809 3.6727889004 3.7563655896 4.0232306447 3.0549885972 
4.0259868251 3.4547982672 3.9050667713 3.9428229201 3.5541025775 3.3755110123 3.9534467858 3.9340332324 4.1800973502 
4.2394810798 3.7181962753 3.6425234063 3.9504523898 3.5357744645 3.4144476545 3.8173022067 3.2254164289 3.1487584959 
3.9378346031 3.8963122791 3.3814853526 3.1550295168 3.6668198825 3.3816566695 3.46098538 3.5480570139 3.0343483094 
3.5714261029 4.1670048114 3.7701372237 3.2796510829 3.9356468825 3.1640326707 3.488323907 3.6636936729 3.7972246619 
4.8528158214 3.1294588926 3.6249583554 3.3364728501 3.4767841237 3.598303473 4.1339765304 4.1951388384 3.5691459079 
4.14942363 3.6269735411 3.2617995445 3.6039755172 3.4550356476 3.5194185561 3.7839889786 3.2572352222 3.6611349679 
3.0789546258 3.2208308506 3.0497837076 3.8007004009 3.2344757805 4.3749855103 3.5666636231 3.211776846 3.7851494925 
4.1877133128 4.1948003768 3.7854343191 4.2163742349 3.699560197 3.2872527031 3.4998397414 3.3529110657 3.565223964 
3.3420103729 3.7783255982 3.6713124589 3.3234644097 3.6422198045 3.1470456193 3.1097812228 3.9062298238 3.3614412165 
3.4630677449 3.7592735226 3.347265539 3.4653301087 3.5033875827 3.6340498507 3.5905299586 3.8164757279 3.9506643543 
4.0766659396 4.0558396328 3.1977359395 3.8910707133 3.3611983546 4.0441890867 3.3919870535 3.1702644662 3.5077699037 
3.8475875032 3.4864204662 3.0986744317 3.5651566604 3.6807270843 3.7261691536 3.9911765773 3.3900609399 3.18706919 
4.806924852 3.5885056705 3.8021441836 4.6391834848 3.5153262988 4.0412106756 3.6882234374 4.7360036846 3.2631840822 
4.6252076345 3.5930371531 4.4406843434 3.1833794575 3.5210997748 3.6203931713 3.063424644 3.2990442387 4.4186994762 
4.0151559888 3.9720906934 3.7241785367 3.1157005486 3.0312134079 3.5523714862 3.298512854 3.6383821029 3.2092377785 
3.3380089412 4.0147111308 3.2618256506 3.8287109619 3.9450448981 3.4571701025 3.4490724777 3.6780559113 3.472221451 
3.5613829048 3.8629337502 4.726292769 4.2624400937 3.9782429629 4.3995477862 3.7104339675 4.6080397022 3.3497957823 
3.857887953 3.0667360304 3.8283678284 5.1062966734 3.8872011075 3.3600864256 3.0839973989 4.4053295029 3.8912451605 
3.6091265016 4.4551222412 3.4516027664 3.3530830372 3.0365375015 3.1252418118 3.5462969475 3.0490044565 3.6501125856 
3.7866074449 4.1304080311 3.8554200237 4.0361266081 3.4737977833 3.2673841406 3.7781324783 4.3082047399 4.1069808345 
3.6632700249 3.6736678404 3.9716498351 3.4011866094 4.6203334542 3.2713115115 3.3803313971 3.2652405097 3.3166218403 
4.5052551072 3.4542361771 3.6764481163 3.457648413 3.3782283292 3.606731458 3.3799536063 3.7024297646 4.2672458062 
4.3756074622 3.1600148603 3.5212732405 3.6277674319 3.9605248085 3.4786204866 3.4948524817 3.9749197066 3.2889212071 
3.1224851956 3.7815189524 3.5919397588 3.5993380278 4.8321314259 3.7599202328 3.3602069652 3.9037134199 4.4751585222 
3.2801433143 3.4366812384 3.5510500255 3.1319073081 4.2039415691 3.6262853948 4.3392652621 3.5506218679 3.4743575006 
3.8543918698 3.0994248685 3.5158346369 3.3574143141 3.2514639119 3.5949926769 4.3021423002 3.407900679 3.9109642981 
3.6084841472 3.3856742927 4.015696583 3.3923400022 3.5866975983 3.9493307902 3.1354254674 3.1286694047 3.7147187689 
4.0121197401 4.6140810056 3.5952331231 4.2062349649 3.2350206026 3.3444018549 3.4915766299 3.3350851598 4.1709562463 
3.9300997827 3.6484602342 3.5256312717 3.1410641168 3.7469395038 3.8442705063 3.5915014365 4.1263460929 3.5611018921 
3.9374324378 3.6491272101 4.3176693712 3.2494792428 4.0371432227 3.4606170353 3.851624038 4.3559946438 3.6339728125 
4.3112368995 3.9364332669 4.0053107437 4.2242046551 3.6210233117 3.5230994017 3.1847827253 3.4739459248 3.790867244 
3.684791324 3.5207112197 4.4449391166 3.6109071547 3.3789848833 3.790407952 3.4281700071 3.5203063876 3.489167687 
3.2558984434 3.724601977 4.1675743936 4.2089367452 3.2980890367 3.8201177375 3.6667136752 3.8537316427 3.6797919098 
3.9090867778 3.3030107347 4.5744581618 3.3958127886 3.5830981327 3.2682248302 4.1030455056 4.0599773534 3.8469752535 
3.2719618303 3.8873490527 3.6146226885 3.7265787865 3.6797641429 3.7594417952 3.5889672064 4.1943699071 3.7220375121 
3.5740267934 3.6411491889 3.3792241241 3.7469822711 3.6517150972 4.1311060869 3.3336655209 3.2528681066 3.6971233498 
3.3772476157 3.3978530137 3.4312078049 3.9030317593 4.0340375495 3.9957758721 3.4223179043 3.460178734 3.3028341873 
4.5716497844 3.2215809687 4.1591384363 3.6554921136 3.4874387827 3.209400816 3.4934805949 3.5682736451 3.4919236765 
4.1047500788 4.008248074 3.4735564332 4.046395152 3.7519995368 3.7907308417 3.7875964392 3.2340470508 3.7986227028 
3.9357736725 4.3759875014 4.2442806133 3.4621844004 3.7412111703 3.7826396184 4.1225917294 3.8580186782 3.7348529882 
3.3194552775 4.2389364613 3.1693303905 3.6595512401 3.9736740938 3.4405469006 4.0819880743 3.5869718871 3.5336951654 
3.8471285756 3.7630661712 4.4015871208 4.7275566717 3.8788710825 3.7798040034 3.9963852927 3.9150131907 4.1312986081 
3.4831170099 3.6621137992 3.100666697 3.3377694585 4.3502543192 3.8652316726 3.4205589734 4.9347564977 3.87281328 
3.300504934 4.5292599093 3.8013428867 3.6667271629 3.7348497903 3.889688814 3.9774955614 3.9701120917 3.9520685192 
3.2424963338 3.4691287064 4.3046938542 4.1395925604 3.9161028854 3.7366934544 4.5513831005 4.1533169992 4.1118468147 
4.0439322814 4.2137506341 3.8100542826 4.1472092476 4.0377891251 4.1147151234 3.7137471931 3.734211222 3.9321421957 
3.4353243276 3.9519100296 3.679926867 3.2845279968 4.1755754911 4.0566147065 3.2694577024 3.3197256643 3.5816029776 
3.6636303641 3.5780113749 3.9205749343 5.1955190495 3.3055433723 3.6106560296 3.7442430866 3.9622626237 3.8056127615 
3.2037085268 4.2844756736 3.6666789569 4.1492761978 3.8824320702 3.7445953769 3.5168735281 3.3982866912 3.8196175309 
4.0689411588 3.8024208951 3.8681803898 4.2205027393 3.7706405521 3.7009383299 4.1210517995 3.4015110211 3.6119826085 
4.0015930698 3.8749144628 3.298796255 4.1066578655 3.7495547807 3.9256292762 3.8211097493 4.0316100848 3.8283158481 
4.0075959838 3.4571342589 3.427577112 3.4041532561 3.5624964614 3.2376408351 3.6840170338 4.9298773929 3.9861012714 
4.2590609238 3.4991969548 4.8484082807 3.2135768165 3.63059177 3.509488722 4.5454624087 3.2669958994 5.1622640189 
3.2893443696 4.7632216605 4.2870158033 3.6440200118 3.5753567685 3.8454288768 3.7700289105 4.0272263119 3.6833087803 
3.9271910698 5.1793937506 3.334373397 4.0038189827 3.8797266823 3.7781213742 3.7433095481 4.0626815902 3.6792777363 
3.2429892112 3.5781902144 4.4339244534 4.5647825003 3.7273087529 4.0746085463 4.5665931506 3.3316248892 3.14128905 
3.4200586239 4.4474804641 3.8151195937 3.2040818095 4.1048958923 3.3383670715 5.0045273086 3.7440066374 3.7827500764 
4.9555717627 3.4327790152 3.4538303763 3.7042505812 3.2811669539 3.7254936367 3.5889654393 3.2219102764 3.217069202 
4.5816597925 4.6100872737 3.9111187278 3.6504183357 3.8093289295 3.8933353336 3.8549205742 3.6536897244 3.4037001235 
3.304985202 3.7093338829 4.052392015 4.3792465099 3.9910082138 5.2316934981 3.6022954858 4.1120734912 3.7451509751 
4.1233483084 3.4449890113 4.5757154672 4.4621019149 4.3859701787 4.1689604059 3.4755010841 3.6656986024 5.0728337789 
3.5925472629 3.273141748 3.39921799 4.1334498995 3.7360452379 4.7236915414 3.5162246358 3.4647833696 3.874654866 
3.3615470966 3.4039145456 3.6713586152 3.4456136921 3.665884172 3.1037619726 3.4264606953 3.6000882121 3.5967782592 
4.0402896563 3.5723315365 3.2438072097 3.5749503606 3.7837539111 4.2126731486 3.6671621617 3.3289080003 3.2847547124 
3.7777922167 3.5466335261 3.754711899 4.0266085107 3.577058669 3.8083822437 3.7128930197 3.3652797814 3.1622467617 
4.3678657662 3.8026632278 3.9280182716 3.5643240895 3.4643706153 3.3367234193 4.5286535678 3.636470103 4.3488444921 
3.361392015 3.4287695227 3.306821852 4.2848184082 5.0178891977 3.992803169 3.8990134068 3.3230354789 3.5531781563 
3.8374191741 3.280896996 3.9848226348 3.7245835905 3.9491071499 3.17170245 3.8087796251 3.9040857648 3.4977872874 
3.2345319226 3.3196522097 4.0519470372 4.1650964587 3.6162901779 3.8066156494 4.019609179 3.1540714363 4.166553206 
3.8189178389 3.7395220806 4.1026291444 3.7987856104 3.6590827617 4.0432509853 4.1353392664 3.2445685921 4.2408404212 
3.6292425836 3.5517117926 3.0767485596 3.8640433926 3.6052122597 3.5800171169 4.0154773855 4.0806445239 4.4445236038 
4.3394389277 3.4116582914 4.0601055067 4.709495091 4.9739401686 4.5366335327 3.0829791684 4.1175930889 4.2490704031 
3.2703324774 4.2453035783 3.5694592104 3.38236646 3.4603680492 4.2679060031 3.7171687428 3.2504255398 3.5540667093 
3.5306089999 3.5732423192 3.7935257637 4.0810751098 4.9710328806 5.1605874337 3.7872634071 4.0533566069 3.3669333458 
3.8429871725 3.8121384225 4.1560879219 3.6099523357 3.3483893176 3.8476285109 3.4510852835 3.4303350202 3.8843605005 
3.344794111 3.8486759637 4.7980541329 3.5156760914 3.7314016435 3.2889044801 3.2528572223 3.5968816466 4.1562009295 
4.011799804 3.2285054347 3.624375437 4.0494213397 3.8783873541 4.4457277716 3.5748794989 4.4212956542 3.8698829148 
3.6957808885 4.1499155045 4.0348641699 4.1017759836 3.2624045283 3.6947031254 3.4283657874 3.5307937178 3.8035608913 
3.8779445772 3.5765250967 3.1261670929 4.1761228904 4.1872727113 4.258339894 3.957427979 4.3701517917 4.0587429173 
3.8738177874 3.3688554229 3.4852217277 3.5745954784 3.0614444527 3.9480320969 3.9211008967 3.1506571951 3.7961019533 
3.5470759934 3.0569659356 3.5780748781 4.4317768695 3.6583097923 3.7071868388 3.8841987023 3.2444389563 3.3497261151 
3.4834740545 3.4730820418 4.169602049 3.898964407 4.1459701008 3.4994769516 3.6535109471 4.0341110993 3.7102290408 
3.8509683996 4.5597534927 3.8650603225 3.5279288277 3.5071290337 3.223377306 4.4958888437 3.1975091195 3.6043629857 
3.9258870238 3.7463671177 4.2873301315 4.0335435627 3.9008814482 3.5965702099 3.2508945148 4.0189388232 4.6618791895 
3.4397803927 4.1344398275 4.081906213 3.4553785367 4.2174165909 3.6454193986 3.2355354754 4.36962474 3.2482566803 
4.9504405852 3.9576657423 3.6750395383 3.7414893326 4.0857623172 4.6154813833 4.7214540234 3.2464064058 4.7271645307 
3.6304347041 3.946887798 3.7238420384 3.8455598146 4.1264562839 3.9929895602 5.6031432786 3.397053205 4.8110598182 
4.4092046806 3.9730166448 3.908913932 3.5858051534 3.7961878237 3.503587202 3.5118824396 5.0541288022 3.4846683734 
3.9187737459 3.5413482963 3.7376749628 3.7088079918 4.0892632043 3.5914904196 3.9421177239 3.7749752406 4.3463954562 
4.3118269159 5.2519275289 4.9348160263 4.1328539658 3.5779805936 4.3172957529 4.5174127868 3.6897827592 3.5302690963 
3.7974844857 4.0819490209 3.9943097653 3.85458934 3.4417103044 3.9327782794 3.7126883635 4.2882345243 4.0783846948 
3.7398848221 3.0717388119 3.3020347076 3.3822714901 3.1889658812 3.4834574959 3.5639785024 4.0526962869 3.7418632688 
3.8150527095 4.134388438 3.4213500884 3.9109167334 3.3640389347 3.569405277 3.1171818628 4.6020961501 4.3131988903 
5.3980944251 3.7938315957 3.7192489217 3.8233663802 3.3181766834 4.1154624151 4.6618905361 3.333197253 3.215120797 
3.6958954968 3.2798386762 3.7888379891 3.820463527 3.5486179262 3.6224700026 3.035676332 3.4010610559 4.0179774381 
3.4150665384 4.2436479364 3.209238236 4.0153917791 3.4726095428 3.9711806426 4.5271721547 3.9327091068 4.2630501331 
3.6414170103 3.5567817808 3.868790077 3.5989997245 3.1923673028 3.62267142 3.2752180057 4.1501481013 3.6655490591 
4.3675530936 3.7674373784 4.7331365281 3.2610438783 3.0943696286 3.2504438391 3.9368154772 3.5957816568 4.8012836031 
4.255344563 3.8078813236 3.4579833077 3.3404418972 3.6301871512 3.364444688 3.7949468881 3.5849812561 3.847339174 
3.2495422031 3.3772696538 3.7229716523 4.1316216302 3.7075330352 3.9549323379 3.5394486786 4.1625674513 3.5184534733 
3.2917204034 4.2625738979 3.7639730853 3.7599602445 3.7723974396 3.4031789481 3.7351905609 3.9317675419 3.9946802867 
3.9426477167 3.8008959832 4.4434873044 3.9713161024 4.4147182708 3.3898247387 4.0805149006 3.1807696937 3.1913946114 
4.0628233168 3.7626539227 4.1906338662 4.4180591405 3.9815607185 3.7774209932 3.9171844661 4.2497643467 3.6674272365 
3.9791648172 3.8873237148 3.9468696814 3.7636624309 3.259303738 3.674238008 3.9343740806 3.3382588528 3.3382021044 
3.2440156392 3.3698840816 3.4490826626 4.462573825 3.9163042175 3.2543862468 4.3464102042 3.7507000073 3.7668091307 
3.5896417818 3.8547032983 3.5393388398 3.6350296004 3.3903257659 4.2009058272 4.0524696693 3.5378141702 3.7753856911 
3.4240809489 3.4599607841 4.9029854714 4.1984982245 3.2704037044 4.6927026438 3.6988584452 5.1472203684 3.7504017749 
4.5166438593 3.2296050238 4.5648068486 4.1617740213 3.9074636136 3.7169541325 3.586229828 5.9906821973 3.5037849804 
3.6475611618 4.5870542779 4.5727651728 3.7368137273 4.370577474 3.6781996257 3.244601073 3.894096099 3.9108773865 
4.1310684738 4.0965427627 3.5868824345 3.7679593774 3.2517662301 3.845746285 3.8332502557 3.2215597878 3.6300351349 
3.3157569722 4.4520460903 3.4682509091 4.1948026034 3.3110008688 4.5683033741 3.6816109264 4.1192003813 3.6487762221 
3.8305011606 4.4043226911 3.4102910255 4.5261250045 3.9848347511 3.8208682709 3.441044776 4.1900128207 3.6889752605 
4.4000050574 3.3171357388 4.0372842358 3.3272418359 3.3488242267 4.3549525577 3.92790299 3.644846835 3.5359102265 
3.1835824821 4.0942192192 3.2600013115 3.8945114877 3.5939433127 3.6251168754 4.1651677321 3.6861747507 4.2111227247 