# vtk DataFile Version 5.1
vtk output
ASCII
DATASET UNSTRUCTURED_GRID
POINTS 12478 double
-2.8569311991 -0.1327000618 -0.98953269933 -2.8527794821 -0.068967808493 -0.95578570001 -2.8409929152 -0.1327000618 -1.0971896363 
-2.8517566598 -0.1327000618 -0.87700639523 -2.8472501755 -0.078299999237 -0.86354999542 -2.8464519542 -0.070717908891 -1.0584094154 
-2.828950119 -0.011550045013 -0.96175003052 -2.8254567754 -0.1327000618 -0.77025229465 -2.8218000412 -0.083100032806 -0.76830005646 
-2.8193151638 -0.062546720811 -1.148043061 -2.8215290506 -0.013259134886 -0.87764510279 -2.8223531328 -0.012913594885 -1.0468552354 
-2.8166750908 -0.1327000618 -1.1746750832 -2.8011503687 -0.017763086673 -0.79513020642 -2.7994525371 -0.011140156255 -1.1352915734 
-2.7877425583 0.0041074872986 -0.971748849 -2.7872922645 0.0040643558195 -0.89391674812 -2.7663013795 0.0032907110257 -1.088437691 
-2.7787635451 -0.1327000618 -1.2525985739 -2.7892148197 -0.1327000618 -0.6920432827 -2.7800059563 -0.082033245664 -0.68633436297 
-2.7793706143 -0.071606561779 -1.2441578106 -2.7715217135 -0.00081184932537 -0.81020566105 -2.7392862968 0.005664709353 -0.96739312872 
-2.7673635052 -0.02565752476 -0.71948708192 -2.7611459521 -0.010944899762 -1.2164944726 -2.7465727193 0.010218890112 -0.88572743084 
-2.7473538273 0.0024271849055 -1.1548392271 -2.7127347011 0.0032259809518 -1.1136950879 -2.7248739197 0.0047494739512 -0.78636575993 
-2.7242738145 -0.1327000618 -0.59552667491 -2.7244218905 -0.084425612276 -0.60806844625 -2.7224546253 -0.073320450063 -1.3248278028 
-2.7029070967 -0.003324101616 -0.92607724201 -2.6828425884 -0.012190122857 -1.0245730066 -2.7094314911 -0.1327000618 -1.3442558731 
-2.711887212 -0.039029817435 -0.6299822413 -2.7037050509 -0.016414805069 -1.3087244042 -2.6850632415 0.3119981148 -1.0033360417 
-2.6853250592 0.25767854611 -0.98852368775 -2.6837992935 0.31433386335 -0.96217657994 -2.6836489387 0.2630044858 -1.0241200276 
-2.6846083057 0.26445139463 -0.95192937167 -2.6710535686 -0.0035541208085 -0.77240412584 -2.6775860389 0.3165850263 -1.0421570641 
-2.6770000458 0.27299995422 -1.0551000595 -2.6747701438 0.35831221035 -0.98909632534 -2.6748358394 0.24872729316 -0.91138312014 
-2.6936338792 0.0055007126628 -1.2029794714 -2.6711502075 0.31239995956 -0.90060005188 -2.6724784795 0.20008761811 -1.0183496419 
-2.6604507032 -0.0062823212738 -1.1375683405 -2.6725895369 0.3532633457 -1.0311403256 -2.674195876 0.20463014563 -0.95616311665 
-2.6720720184 0.35605391409 -0.94334325306 -2.6714531958 0.22560597807 -1.0518366491 -2.6564345059 0.29898794248 -1.081202934 
-2.6598296771 0.35242428335 -0.89858901708 -2.6528816591 0.2376158337 -1.0837859554 -2.6563793767 0.26430740416 -0.87449276377 
-2.6559977937 0.34348418339 -1.0721561779 -2.6287472094 -0.1327000618 -1.4163884954 -2.6552001953 -0.1327000618 -0.52680001259 
-2.6538002014 -0.098900032043 -0.52850003242 -2.6569591224 -0.079769817677 -1.391901693 -2.6513301862 0.14939373406 -1.0299670753 
-2.6544395392 0.40704605764 -1.0096866172 -2.6542299562 0.17632901723 -0.90415435593 -2.6582724552 0.15663429583 -0.9802677941 
-2.6523570779 0.41008714839 -0.96367640693 -2.6473474978 0.20141631919 -0.87437481848 -2.6515243608 0.39489614563 -1.0460382317 
-2.6505104048 -0.02768165992 -0.92862040671 -2.6436814601 -0.027068192798 -0.62928453447 -2.6187833538 0.26092508824 -1.1079499278 
-2.6336158375 0.37238857871 -0.87492963278 -2.6405549582 0.31690885632 -0.8646295318 -2.6254999342 0.32745844409 -1.0970076232 
-2.6482709546 0.14236245807 -0.93882770734 -2.6355588898 0.1569619323 -1.0715831884 -2.637709334 0.41304097742 -0.90885146554 
-2.6434930551 -0.045513229816 -0.55817208727 -2.6365001678 -0.017450046539 -1.3744000435 -2.6247057936 0.44205234963 -1.0462596828 
-2.6145773775 0.14971426455 -0.86239691432 -2.6290338991 0.10571404491 -1.0138266174 -2.6288384647 -0.027158735137 -1.0651708026 
-2.6290911302 0.35734637343 1.3775865662 -2.6285266549 0.30087923928 1.3870097281 -2.6186605657 0.24769681103 -0.84895843363 
-2.6210154635 0.39565384545 -1.0804758235 -2.6200404793 0.25338957566 1.3561096467 -2.6228500366 0.11859998703 -0.89155006409 
-2.6252827137 0.39573799864 1.3805821543 -2.6224500656 0.11284995079 -1.0519000053 -2.6126285167 0.19826270035 -1.1046783617 
-2.601167182 0.42232436104 -0.87265063374 -2.6185210024 0.088559509207 -0.95190486015 -2.6204000473 -0.016050052643 -0.68475003242 
-2.6244496718 -0.00047163128929 -1.2155487359 -2.6181878384 0.38974275482 1.3392814313 -2.6220049058 0.34771635349 1.4120539505 
-2.6234563408 0.4569516216 -0.99201669548 -2.6178710634 0.66644740978 -0.98839829878 -2.6179958663 0.23601159376 1.396720559 
-2.6131939957 0.2864043184 1.4248079646 -2.616232931 0.43863059485 1.3654064001 -2.6200783139 0.3221594392 1.3383976999 
-2.6290462195 -0.027857086142 -0.81306948784 -2.6138848462 0.41910366046 1.4077550661 -2.6127397521 0.63978085337 -0.97103324768 
-2.5724878754 0.31645643252 -1.1161835208 -2.6053444655 -0.036031140052 -0.89381102077 -2.6094495053 0.68937690147 -0.98934816018 
-2.6111254378 0.67101207414 -1.0496875881 -2.6090780683 0.66403583973 -0.96722698365 -2.6102253339 0.64712932535 -1.0398907327 
-2.6195742989 0.45530652616 -0.93845491351 -2.5955192958 0.057277670733 -0.9891882964 -2.5905079603 0.36102169302 -0.85105333091 
-2.6095547835 0.69119747681 -1.0269097123 -2.6039455175 0.47149840369 1.3910307584 -2.6047705452 0.44353660541 1.3284173169 
-2.5970999945 0.18511936087 -0.84324436795 -2.6054388019 -0.1327000618 1.2202270258 -2.5924366414 0.41950124749 1.2973431247 
-2.6028001785 -0.09655008316 1.2201000214 -2.6010014693 0.65998171115 -1.0727534674 -2.6009918771 0.35594919017 1.4391903904 
-2.5904610468 0.06970116338 -0.89648488969 -2.5996630515 0.63056301609 -1.0681006415 -2.6003092294 0.17264427634 1.3650771709 
-2.5941702901 0.68430148835 -1.0632490861 -2.5790401362 0.093438434319 -0.8580718566 -2.592509707 0.13506575549 -1.0962680952 
-2.5961601075 0.48839976916 1.3493590781 -2.5877792512 0.44732807234 1.4291619983 -2.5896236499 0.063274842049 -1.037132383 
-2.596754382 -0.1327000618 1.1207123331 -2.5968000412 -0.1327000618 1.3186000824 -2.5903104278 0.70608186117 -1.0018056797 
-2.5792175553 0.080668681652 -1.0738357783 -2.5963002632 0.22495116411 1.4311902993 -2.5732622297 0.62431920607 -1.081654976 
-2.5941501617 -0.09640007019 1.318100071 -2.5912324433 -0.08721912406 1.1297305026 -2.5884151321 0.63847572948 -0.9433532 
-2.6005742671 0.61173149554 -1.0220295783 -2.595346517 0.19695107823 1.3208509726 -2.5927421678 0.17315523025 1.4075303769 
-2.5856344206 0.31100443314 -0.84274014014 -2.5802783801 0.70669584941 -1.025133314 -2.5874389075 0.50505885201 -0.95786030797 
-2.5863001823 0.47432498932 -0.89407501221 -2.5874874476 0.69799801123 -1.0481536041 -2.5924340874 0.2470395587 1.2966797463 
-2.5861776116 -0.1327000618 -0.47852332535 -2.5829865739 0.51104701608 -1.0336314983 -2.5807079094 0.55360763796 -0.95421069364 
-2.5770636436 0.39406407275 1.4530657817 -2.5717864052 0.11712309424 1.3734705039 -2.5818638715 0.47044221686 1.3034119735 
-2.5707836019 0.12707021437 -0.84103647256 -2.5797248501 0.55446327716 -1.0117815611 -2.5834437419 0.46659522632 -1.0736001319 
-2.5706636996 0.67259798187 -1.0795797795 -2.5876150605 -0.027740832027 -1.0291911652 -2.5882658622 0.30597317521 1.2820472714 
-2.5833692414 0.51561744765 1.3895760748 -2.5770512276 0.69558473076 -0.97216856236 -2.5598673076 0.22222356465 -1.1298639936 
-2.5673612616 0.027230803432 -0.96087082635 -2.5783161082 -0.040075616212 -0.81767901825 -2.5730501175 -0.10050001144 -0.47190003395 
-2.579563065 -0.083987062858 -1.4470849397 -2.5728587444 0.52815835138 -0.91391886553 -2.5731789659 0.70935196876 -1.0016566912 
-2.5723376751 -0.1327000618 1.0335000277 -2.5707647131 -0.040398452126 1.2341869106 -2.5756260573 -0.1327000618 1.3984682976 
-2.5665923947 0.035187321272 -0.91221747209 -2.5745832426 0.25454972449 1.4592197847 -2.5704475562 0.56455004965 -0.91703882586 
-2.5651874635 0.51141894433 1.4154662206 -2.5810102208 0.13886648031 1.3355906229 -2.5622383134 -0.086432417324 1.4185117206 
-2.5655938462 -0.081218013821 1.0290228996 -2.5676267932 0.51513998272 1.3157108142 -2.5417451399 0.62377218537 -1.0867164527 
-2.5597721981 0.4262742826 -1.0969967536 -2.5559099382 0.12033691813 1.4198065732 -2.5732809673 0.006079699519 -1.2822802671 
-2.5597256998 0.43719100777 -0.86286463161 -2.5785431669 0.31769959643 1.4602822598 -2.5562469731 -0.023584658111 -0.88977198651 
-2.5666376591 -0.1327000618 -1.4562500477 -2.5581342938 0.024027582341 -1.0182947016 -2.6011985773 -0.024782930973 -1.1465081049 
-2.5621527509 0.52200007285 -1.0693277002 -2.5686859681 0.56573493003 -1.0594940878 -2.5638502121 -0.039550018311 1.3127500534 
-2.5648391782 -0.04062579275 1.1362880614 -2.575959503 0.37602353803 1.2717203283 -2.563283404 0.54569230621 1.3538443847 
-2.5555630036 0.69976946664 -1.0225936793 -2.5837894278 -0.050444709619 -0.510471566 -2.5600348734 -0.023822124351 -1.4290549398 
-2.5591815125 0.68473853497 -1.0695013201 -2.5382774823 0.15151816882 -1.1266916169 -2.5519818495 0.62433702787 -0.92184545835 
-2.5513196098 0.0077226595192 -1.3523055158 -2.5190647596 0.49578512107 -1.0937114471 -2.5432516536 0.52376903207 -0.88597643539 
-2.5504005337 0.47320248668 1.4424247835 -2.5603542452 -0.029086389828 -1.1193126456 -2.5559295615 0.048341975366 -0.87249074192 
-2.5573899516 0.17495035231 1.4531697114 -2.5443403873 0.083147188876 1.3844850748 -2.5621969175 0.13247680834 1.2947837 
-2.5497421129 0.56577748151 1.3867565126 -2.5515661125 0.70228869006 -0.98191437505 -2.5492014301 0.34448908871 1.4746787004 
-2.5500624607 0.17135222484 1.2584675847 -2.5374993874 0.36343868698 -0.84381261673 -2.5578949012 0.44831086357 1.2697530945 
-2.563908245 0.2384556525 1.2605515724 -2.5345248258 0.65837140033 -1.0830417916 -2.5414083835 0.67913798692 -0.94809867251 
-2.5466201647 0.51130010917 1.2850968204 -2.5399936705 0.034459025811 -1.0637535391 -2.5354524266 0.06734864348 1.3402106685 
[...]
CELL_DATA 46944
FIELD FieldData 1
color 1 46944 double
3.509975497 6.5830036137 3.5676686439 3.7446927791 3.872955289 4.4716272827 4.5034176032 5.4721568182 3.7064459229 
4.2840641599 3.3609489435 3.7109929259 4.4946845202 3.3681442183 3.4385017295 3.5748723397 3.1097596837 3.5095100398 
3.1326497547 3.2347519126 3.5999496941 3.5642307171 3.5690785745 3.0632918071 4.6769228915 3.9482828049 3.9022462347 
3.6475234521 3.6235835635 4.2270850416 3.9678860268 4.5822051638 4.3265808514 3.5052833802 3.3120547977 3.0438230873 
3.6582940384 3.4969065783 3.4703680395 3.3649193671 3.1689691478 4.0842862978 3.9415175478 3.5891723651 3.2802037625 
3.1957452632 3.9818144132 3.797952142 3.5754922247 4.9272239553 4.7078024845 3.4146073972 3.4525536675 4.3247520629 
3.9704254416 3.4595087187 3.1995689787 3.4930231383 3.9305613779 3.8042344328 3.5481368913 3.8987144512 3.6121595756 
4.1383999694 3.8980862668 3.4328895293 3.8865558371 3.3884401921 3.416201367 3.5268854342 3.4804301088 3.3195555892 
3.5953941719 3.2573033835 3.3462502939 3.5374225025 4.405386466 3.6779425953 4.8528858348 3.5121771807 5.0620044044 
3.7517868067 3.121808981 3.085061473 3.6187345588 3.5799274645 3.5995545735 4.2580376747 3.6556484825 3.7603871768 
3.8790438495 3.2860642236 4.4514799362 4.5306668202 3.9782133858 7.3986216807 3.3054699416 3.2102787899 3.2900922248 
5.5835702311 4.4310895527 3.4423442052 4.2731932152 4.2034365534 3.3798270127 4.5529732809 3.2465702948 3.9551578081 
3.3983749314 3.7131853643 4.1406742013 3.151424334 3.5025513038 3.2840952354 4.4007467545 3.6397570622 5.5091982041 
3.6781329714 3.8495776646 4.3022243849 3.973614517 3.9763178376 3.7680804123 3.7436269489 3.9216714199 4.0359844191 
4.0248338254 4.0127678143 3.27697466 3.2241754929 3.3121190269 3.3910302766 3.1511685087 3.8917428915 3.7461202408 
3.7913350457 3.2957029698 4.8664036778 3.4507318425 4.3277831282 4.0776516748 3.7157988165 3.8415095435 3.1774410327 
3.7579845411 3.3384555589 3.5594919884 3.0867990427 4.5818587499 3.658335875 3.4126456457 4.0496205724 3.3920879798 
3.9871208377 3.9163621141 4.223632422 3.9288853003 4.6702905259 3.1809252388 3.6942049415 3.9969418989 4.8351701038 
3.8605686213 4.1087976562 4.6378537772 3.9550362281 3.5993924732 3.2906612356 3.3537359201 3.8103095795 3.0387329298 
5.5321613203 3.1731839678 3.4897196002 3.868509989 3.6547471671 3.9137818511 3.1867959918 4.2867606653 3.1214227883 
3.3504650654 4.3938146682 3.7143116449 3.3680443855 4.1783455087 3.2556483513 3.8683788992 4.0490050251 3.2081566811 
3.4608657006 3.6004297782 3.3534508573 4.0585454155 3.4962671108 4.0912532775 4.0752723326 4.1746643775 3.8702356231 
3.7301408344 3.4634472194 4.0590628689 3.2573992589 4.2186248414 3.816573096 3.8437629122 3.9118186727 3.8227395784 
3.3078299791 3.7648187409 3.5069544339 4.5940611591 3.6396172473 3.4547556928 5.0161088928 3.9505618625 3.6564622827 
3.5747098597 4.3147375493 3.0901648608 3.0733116773 4.0441683584 3.5508503633 3.171918756 4.0323879987 3.6868933445 
4.1776537375 3.5184623418 3.6474591959 3.6100785675 3.8484815278 3.5579710484 4.4286410712 3.4191797992 4.1271273257 
3.9478652246 4.4345214282 3.7233207637 7.1912962791 3.2021586548 3.9629571771 4.4485893062 3.8023924076 3.3450446145 
3.1840905831 3.6461939732 3.1680452137 3.515772904 3.6285218961 3.1316864799 3.5683733179 3.3515270453 3.4743894927 
3.3999057464 3.8559355627 4.1676501564 3.4280962906 4.0120717746 3.7744438162 4.0328314338 4.2346482091 3.5671108506 
3.2385941004 3.8146227838 4.5124627305 3.2797988843 3.7232001714 3.5286588959 3.933411548 3.506067523 3.673988744 
3.5667403265 4.3043327884 3.7423895181 4.0798584984 3.4195579035 3.4271059074 5.5431238752 3.1854571056 3.1000520183 
3.9357373868 3.1967546414 3.5773294786 4.7654954404 3.6043017826 4.3525104816 3.771104456 4.2176488084 3.4563027082 
4.4108161272 3.7352993523 3.4973727451 3.1784386189 3.5618718357 3.4804528161 3.8970989595 3.245398683 3.3943122113 
5.2606244556 3.7119878946 3.3208416688 3.4593154722 4.0070230418 3.746131985 4.166725483 4.2752793137 3.9735686883 
4.0840146483 4.0637449256 3.7574876872 3.2991840595 3.4696292062 3.1455335141 3.6331191724 3.3022536405 4.1820983049 
3.5278453883 4.6925942472 4.1705809329 3.6608774474 4.2585533209 3.2948877795 3.5905192901 3.8500356148 3.4645313798 
3.710551769 3.6196896562 3.7829768711 3.5798531196 3.2677669781 3.9176373524 5.099318672 3.7803445557 3.3657800919 
3.7268934755 3.2068798472 3.5349998777 4.4788231284 3.39610836 4.9301710703 4.0957937583 3.5444168579 3.9076002105 
3.9831550713 3.271287001 3.3703728964 3.8346715128 3.4912789932 4.2856503897 4.6693167921 4.5927929094 4.307311399 
4.0285838175 3.7284358746 4.6927176351 3.5485803408 3.4900876202 3.2823190169 4.3816143158 4.9653905896 4.300927717 
3.7556553425 4.0975638557 3.1803908068 3.870808418 3.8124454761 3.4809800219 3.9685044469 3.3786406455 3.2765288142 
4.5767843217 3.6201986324 4.4089731823 3.6495752135 3.609177891 3.8656641976 3.7400830835 3.6554124482 3.3039379929 
3.2801045023 3.8010331157 3.553640203 4.2087149177 3.9722633099 3.2446751277 3.6080526047 3.5294033488 3.7377847393 
3.9102345538 4.7155377228 3.4291462131 3.5289469259 3.6303291523 4.2956255459 4.0564457441 3.7806558422 3.4698397064 
3.8259035254 3.103203283 3.5180734641 3.1401154481 5.634002462 4.1821559763 3.9722024857 6.6041180624 3.3176866301 
3.8149305933 3.6130453883 4.2260196164 4.2446441301 3.4210952093 3.6564111101 3.7723702121 3.4562470772 3.8206445553 
4.679899852 3.7437557304 3.5573152066 3.6966405128 3.684327651 5.1374865835 4.673062613 3.5763813937 3.1227940018 
3.6189944419 3.631614636 4.1739735676 3.8889830713 4.1215859109 3.7587684554 4.0198359542 3.9697286199 3.9063969275 
3.1243008879 3.5782137625 3.228312576 3.5696839473 3.617641607 4.2236550784 5.0276586025 3.9627026753 4.0185304011 
3.7970719432 3.5453032899 3.3686524785 4.0468851796 3.5344571836 3.4527113334 3.2505185054 3.3495589273 3.9687561 
4.1560752903 3.3944602383 3.0617442669 4.1058790626 4.0983528701 3.9713367628 4.3363074872 3.7913744957 3.6860004825 
3.3257638611 3.9548074454 4.7982977648 4.7217514997 3.613697062 3.4285152129 3.318214697 4.019261477 4.3129701406 
3.7411576264 3.7384129113 3.3858501981 3.5209318222 3.7339238759 3.512427758 3.2670524938 3.9392324623 3.6641642293 
3.7867973592 3.3486096303 3.4227988184 3.8983655695 4.0352574152 3.6679003106 3.3266497034 4.521132465 3.4709451472 
3.6946322067 3.9815692254 5.2253034703 3.9163676646 4.0117904798 4.4712718034 3.3551360533 3.6036597002 4.1601727016 
3.4337200118 3.2805704254 3.1042474277 4.3912156046 3.2238633533 4.0647708387 3.6225530375 4.8197664441 3.2044690952 
3.8993694134 3.1394372772 3.9027129867 3.6748692833 3.4792364398 3.9527422596 4.2079805375 3.7543195116 3.6495536184 
4.1202672215 3.6946931196 3.5887539423 4.027187121 3.4948207385 4.0334321874 3.1456214386 3.5617057066 3.3906441427 
3.2194023244 3.9256102958 3.7663723448 3.7848495461 3.4742029496 3.7848508015 3.5522906443 5.2788126414 4.262124151 
3.6867649929 3.5118453862 3.0977749539 5.0793252227 4.5600056279 3.4110873034 4.2764327214 4.070697601 3.9403920975 
3.7088342412 3.571736305 4.5345539976 3.5221008732 3.7294223971 4.7865742619 3.4838015297 3.4125780174 4.1374925078 
3.5222778157 3.9435527519 4.0154447801 4.3288020495 3.5600899754 4.4249409468 4.0502993089 3.1661150031 3.4478658254 
3.1360952421 3.2816047403 3.1719820055 5.1064132837 3.5756276137 3.6178510744 3.6525102793 4.0321340103 4.5514506675 
3.8004003969 3.8993487632 3.8664136706 3.8249338016 3.0802638932 3.8212602688 3.4680987493 4.2951334845 3.7561449522 
3.3169578573 3.7766936391 3.7799196431 3.4903204836 3.3068996665 3.8321046103 4.5945123864 3.2905470882 3.9168563663 
3.6469004392 3.4461638957 5.6012255733 3.8233443984 3.7194143497 3.5043386475 4.1440319857 3.6159560312 4.0512155776 
3.3728577739 4.6424680661 4.0189236173 3.6993188231 3.4393329443 3.2029991871 3.8027360759 3.7397251167 4.1692213598 
3.4566865683 4.2890835225 5.0785947506 3.688499138 3.753291063 3.5863411581 5.6642398611 4.1113401418 3.6957794977 
3.8602727246 4.1078777409 5.1462580146 3.4281481423 3.4556415096 3.6033348557 3.5122268501 3.4488909392 3.8337904878 
4.000958265 4.3065665526 3.1606025384 4.4203040742 3.854519926 4.8918961418 5.4729836638 3.2179306146 3.5981641884 
4.2756079536 3.3298606644 4.2515772789 3.4069596506 5.1148084115 4.0688441027 4.1445989031 4.4987885949 3.5469800553 
3.7969493635 4.1092024914 3.4545450546 5.9107135272 3.7639921407 3.6141300468 3.8618701566 3.5603152729 3.6259147468 
4.614486657 4.846933774 3.7876680332 3.2613954697 3.8510575232 4.080356901 4.228968676 3.5779850211 3.2897551815 
3.3571643659 3.8061737562 3.9785815636 3.2428441084 3.0735647728 3.6484743949 3.4226855178 4.8098363748 3.7420411743 
4.828397113 4.0623605747 4.1609957993 4.856866931 4.3683695429 3.9943618259 3.4330021698 3.3797618195 3.7122593878 
4.2204949049 4.831095012 4.4209717985 5.2042406855 3.3354935334 4.1010863021 3.2908650329 4.195999961 3.6009080277 
6.6196902615 4.531935462 4.2180117049 3.3161122802 3.7598613021 3.5173904646 3.1924572914 5.248757747 4.2048877711 
3.2353531514 3.6628855463 3.1813270129 3.1630651325 3.3134445638 4.7266772153 4.0096054706 3.7702282799 3.8026723532 
3.6298398807 3.6163420731 3.3653474576 3.1391065859 4.5088633053 3.3766756841 3.9943001602 5.3275739545 3.9577319037 
3.0932256635 3.6734213374 4.8874264329 4.5159942727 3.4760832518 3.8105872818 3.6264293412 3.6597901383 3.7986373709 
4.1448160092 3.4892773352 4.1673498998 3.8503526499 4.9985715357 3.4428079751 4.1785739275 3.6245387344 4.0653487298 
3.825534023 4.0102652395 4.8919502826 5.5686261729 4.1433313406 3.7086173785 3.9848056965 3.6986631696 4.0870685475 
4.1066835736 4.9729722727 4.6625817389 3.4134451774 3.6202756301 5.5401463369 3.0979156092 3.2859198657 3.4405103135 
3.3034176242 3.666059139 3.3398473051 3.9915124718 3.8178346902 3.9089942071 3.7542848148 3.3616512354 4.0717345868 
4.0067015903 3.6718967731 3.9684656223 3.3768032437 4.0504379127 4.0999102252 4.0999435224 3.6123248711 3.8415735972 
4.2138275256 5.8599244099 3.9824126873 3.3971211964 3.735663156 3.1905419622 3.5825795404 3.7509074644 3.8195428189 
3.8371087375 4.9482838363 3.927070823 3.6763804164 4.4543136457 3.8599768496 4.7486808198 3.507595487 4.1454529374 
3.80373717 3.9774493087 3.8800635584 4.079354642 3.3383867198 3.2878939154 3.5775946315 3.5862722606 5.7811593593 
3.598298868 4.6214912885 3.1248797865 5.8505268877 3.1428693422 4.6395930738 3.3337147549 5.1516636424 3.4386708582 
4.761810567 3.1830863513 3.615991332 3.3642560791 3.6542870522 5.0180366683 3.254189019 3.949024445 4.2690956551 
4.3833227147 3.1949064969 5.5044085748 3.2799050792 3.1088201742 3.2226539081 4.0017820639 3.493566771 4.2951574732 
4.5875224208 3.2307803006 3.3427885721 4.1822340357 3.7021728716 4.2339883983 3.1497806647 3.6487518165 3.3864140109 
3.6873385205 3.893551237 4.5390200685 4.1219346051 3.834667266 5.4493903748 3.6976124226 3.3909304729 3.9966027451 
4.0463783224 3.7169357334 3.4932323535 4.3645554058 3.3940961011 4.243145987 4.0070786707 3.4529957597 4.6417505428 
3.9885678587 3.6061912098 3.2651280598 3.86958274 3.5316816537 5.2004426675 4.0343347091 5.0453279297 3.3453288476 
3.871249595 4.472951258 3.5962817948 3.9202883158 3.8193390671 3.7137601854 5.4009271121 3.8535665838 3.2321462143 
3.3406527773 3.4291332038 3.6050459719 3.1322326495 3.6289883835 3.8772929004 3.0630512038 3.9298089113 4.4141798934 
4.6157332684 4.0670244732 3.5153156048 3.3256976175 4.249102506 4.227647692 3.202682058 4.5337030775 3.3914271078 
3.8178323324 4.5083871352 3.3397483882 3.7205062117 3.450424918 3.6085892449 3.7361494315 4.2945871235 4.6114747319 
4.3222831961 3.6785220297 3.3437364248 3.4966757773 3.7301406081 4.5515439119 4.2341585997 3.5955337551 4.820572413 
3.8489690551 3.7426381397 3.4455864825 3.8435774471 3.7822197453 4.4778188421 4.4656083413 4.65985789 3.9922220645 
4.217045983 3.4689321007 3.3973742802 4.1438560762 4.1430037367 3.9997352058 3.2740810317 3.3832461039 3.8056497782 
3.2737292187 3.925457388 5.4003469657 4.6350746573 4.9397343833 3.5797612933 3.1802841004 3.4823094914 3.9059151901 
3.5476931713 4.4512972119 4.1650791022 4.1400229684 3.249889413 4.1646476187 3.9771742114 4.4464843367 3.9642293361 
3.4856712288 6.6772169124 3.4509383249 3.6641791777 4.2404409292 3.4351921498 3.6694997464 4.1683888005 4.1955169694 
3.5030468923 4.0357829566 4.1707606598 5.6709492848 3.4980230609 3.5868821312 4.3962273708 6.0047962815 3.6037333524 
3.7657125243 4.8617932278 3.9276103313 3.9513065676 6.2619361356 3.4805868443 4.3982043308 4.2290807592 3.3366181757 
4.3819470635 3.5175344368 3.6914560999 3.5832318552 3.5452919004 3.5069996303 3.4099545884 3.7609474279 5.3612267677 
4.7855243699 3.5498580832 4.4908374399 3.9459446125 4.5866284052 4.3139079295 3.7970574898 3.6249664187 5.5449169504 
4.6434092192 3.2890000521 4.5523267872 4.4883499561 6.081927266 4.1917122044 3.1647310162 3.3750433977 4.76556188 
4.2735776723 4.2286445893 3.927473954 4.1616018117 3.3679715671 3.2731277389 3.4953310797 3.5166930627 3.2116325639 
3.6016463333 3.480625857 3.5020337404 3.3368705723 3.2576822737 5.1524291504 3.5302963334 3.3307137347 3.8043728771 
4.2735550664 3.0909064283 3.9693215912 4.24589566 3.4556597593 3.8698212479 4.2536532876 5.2387893411 4.4898631501 
4.3730492067 3.2419426188 4.2346486691 6.2386435497 3.6264881214 3.5064396795 3.3445401639 3.7971055374 3.1599062335 
5.0433124277 4.111252107 3.8132763012 3.4612730008 4.5186152388 4.3273991978 3.9904025803 3.5774081923 4.2287469135 
4.3713767215 4.0135123406 5.1916841438 3.8271441919 3.668370312 3.3145704086 3.3868237021 3.8787124127 3.8892892425 
3.6675711019 6.249422989 3.2073909484 3.2629437322 3.2836911127 3.4488328912 5.212437757 3.578708053 4.2353286768 
3.4832966409 3.1914972915 3.4662811763 4.4004397007 3.7332420214 3.4967793612 3.476845741 3.0895666454 3.4158916191 
3.8442787115 4.2821782597 3.4859475481 3.2546822039 4.1918092909 4.3665761803 4.3866038371 3.276959514 3.429974166 
4.8477184136 4.0364068037 4.0965728349 3.7877467272 3.6273416668 3.7111408109 4.0535859063 4.192262934 5.6533094548 
3.3388604573 4.3635712073 3.6360984464 3.3084125428 4.9754940323 4.1850736288 3.3976064459 3.0896965509 3.2711995773 
3.6229510939 3.1690746163 5.8480809715 4.0719307706 3.6848008422 4.93598115 4.0943714652 7.1440907224 3.8212749911 
3.4916554857 3.199880473 4.4333945192 4.5916597948 4.6201451739 3.6101901002 3.6642365502 4.7757271995 3.3822885412 
3.9895256556 3.9137309922 4.4278617449 3.439827685 3.3502980188 3.4087492566 3.249667997 4.1873694076 4.2442621915 
3.5760424956 3.910010904 3.466011014 3.5781003979 4.8506431118 4.2704099608 4.5343875414 4.4794906895 3.569311184 
5.8140459917 3.5199353603 3.3319696544 4.3340456714 4.0347085209 3.1124799318 4.3580893011 4.0848638068 3.7912269492 
3.0886190926 3.5535587205 4.6255601756 3.2762715975 5.435560849 3.7196351907 3.3636674443 3.8127205353 3.8353092234 
3.7282713422 3.3868501174 3.3788619861 5.1354801029 3.6338770264 3.6263614323 3.4126808848 3.6188090289 3.4143122956 
4.3499705963 4.0015263759 4.8511620184 4.4939612961 3.6248250845 3.1493641983 4.5048583556 3.6927428464 3.6346277239 
3.4109911231 3.5731760669 5.5234220834 4.7960525455 3.6575975166 4.7405694749 3.1161065943 6.3353630575 6.993891192 
3.380075485 3.9827246263 4.7639453971 5.2682330105 4.2823791622 3.3526993419 3.6217107867 5.6148420011 4.1486498647 
4.0711667277 3.7257277349 4.1886995495 3.326906929 4.8575730578 3.6517198993 4.7418988336 3.7069178471 3.914756115 
3.7283189475 4.0982052199 3.6204940003 4.27047865 3.2632541074 4.7251367549 5.521824528 4.1255884042 3.5342134469 
3.9973627849 3.4753727052 4.0429699737 3.7211681986 4.2384086546 4.8307419017 4.1363238616 4.0144280686 5.4239251033 
4.3138987292 3.5019300909 4.0935877457 3.1862063707 4.2037162221 3.7930130327 3.8141171871 3.7747534997 3.6257011745 
3.5782118513 3.3409519712 3.6138108728 4.3051610454 3.8965173308 7.4068930629 3.3244444989 3.2830561661 3.9618051402 
4.2392913457 3.1823825967 3.5570618569 3.7548828561 3.8942425371 3.4983393173 3.9477314008 5.413953105 3.1577847737 
3.5879966844 3.563299426 6.2858832605 3.6628631769 3.3210792855 3.8843120938 3.4351715647 4.643599185 3.1777472212 
3.6357187255 3.2876017943 4.4272914747 5.7773209751 4.3035551425 6.1208905118 3.5023417096 3.0645512008 3.6087259736 
5.2691877251 3.0924126392 3.4910660066 3.5094328687 3.1309499947 3.7187441591 3.6696684821 3.6417935876 3.6876026745 
3.9918240019 3.8170280798 3.7210567727 3.4269671315 3.3704073944 3.2101155087 4.0288265484 3.9125520467 3.3852093246 
4.1627692 3.3941758561 3.5498455218 3.5225058521 3.7037419177 4.5507247136 3.4356638363 3.5307366662 4.2823185727 
3.4551203186 4.1870868776 3.9143622618 4.0058394184 3.7521871453 3.6043949964 6.9463943715 4.4473513224 3.5276794122 
3.3548237375 4.3469780072 3.9486222438 3.3528134303 3.3812236158 4.0392090584 4.2253519998 3.8638339598 4.111581524 
3.6797403116 4.5719759499 5.4972371665 3.4265393128 3.748859752 3.474585491 3.9946455275 3.3257504153 3.4998420068 
3.2855683486 3.4366202259 3.3745794242 3.5244048759 4.0311032741 3.2166853471 3.1087257716 3.5094216949 3.4400642349 
3.6483818878 3.5014868186 4.529706616 3.7379507216 3.4114219521 5.2002636347 6.2216257301 3.5823703917 3.41101799 
3.8760607307 4.0677526601 3.8127737509 3.1514493012 3.7267510282 3.427542304 3.7986829048 3.305872317 3.8988303223 
3.4320938242 3.7064096599 3.9610194521 3.7050106532 3.5632172139 3.4496459119 4.9616277049 3.2974196635 3.9394720971 
3.8062016034 3.5572884129 3.5998717089 3.4156856426 3.5936302996 3.3503051176 3.9020100024 3.2198900387 4.7310472638 
3.8081677618 3.672123581 3.1098232942 4.2318412469 3.6766320461 3.6895378108 3.6722509668 3.1315945877 3.9035710707 
3.5226163012 3.8222634866 3.161584573 5.1935988666 3.4945564874 3.3803197192 3.1306276109 4.4158801136 3.2926848456 
3.506165359 3.9656356168 3.3056596849 3.674338278 3.2119583231 3.8855522434 3.2550515714 4.2408238493 3.8688201683 
4.1720412583 4.8920999184 3.8320216643 3.1213831559 3.314755131 3.8030218488 4.2581670794 4.0227252018 3.2902389179 
4.3587021215 3.4676928821 3.6705135027 4.0170457609 4.3221214637 3.4959381076 3.4974598843 3.4523327372 4.3574150728 
3.8538149856 3.5155491062 3.6294209737 3.9008454665 3.7869883619 4.5104068079 3.2080845983 3.360183645 3.6999152153 
3.3292390154 4.2389853832 4.5293538493 3.4380416957 3.9972653711 3.6692282649 3.7374652394 4.5890379553 3.3262993852 
4.0724703746 3.7280717211 4.5154014939 3.3789335391 3.1612364997 4.3578742649 4.5036909254 3.8033871424 3.1379534196 
3.8554964502 3.6382639806 3.5182428745 4.1024916131 4.1390434098 7.7076643337 6.8788817082 3.5686517383 3.7930703149 
4.598049305 4.0222086938 3.3114323018 3.9152539047 3.5050206824 3.4229150193 4.6843166671 3.2857356447 3.4399410564 
3.2860161916 4.2052892327 3.7125561445 5.7253686266 3.8944945922 3.0800461022 3.6100470749 4.430206015 3.2228434801 
5.706490658 4.7018295476 3.4691239473 5.1461659106 3.8262656199 5.8558866755 4.5339325688 5.3821554624 3.2403780389 
3.2128851609 4.5199405182 3.0999583711 4.5791742503 6.2005873272 3.4157799264 3.8803508421 5.274233831 3.3889245051 
6.6935143998 3.6570993454 3.5009497623 4.0740537665 4.9412932281 7.4988233594 3.2730170618 5.5182764153 4.1251807796 
4.5321692967 3.8511757333 3.5999419382 4.1364898153 3.4543611467 3.7466585109 6.1410821165 5.9075547781 4.9843867348 
6.4307439646 6.9123881199 5.3053050264 4.4535109984 3.8401563303 3.8978366972 5.7285000462 5.0631743371 6.7864644466 
7.5703303618 6.2369148358 5.9971493481 5.8099776047 6.025010468 4.9072308723 5.1962765104 6.1435293456 5.3466479848 
4.8650540953 5.5570533515 6.6271081534 5.1473561055 5.753868791 5.8631907476 3.5646278277 3.3014642071 3.6000696461 
3.7250710482 6.5467221491 4.0820111079 4.3742417909 4.3519412616 6.3541672202 4.0825143365 3.77649132 3.7610276119 
3.2874185088 3.1830747453 3.7870001644 4.0985601516 3.5604593774 3.2514817356 3.8335707613 3.8441126205 4.6999889625 