# vtk DataFile Version 5.1
vtk output
ASCII
DATASET UNSTRUCTURED_GRID
POINTS 6851 double
-0.5625375 0 3.7524105e-05 -0.5625375 0.225075 3.7524105e-05 -0.551662575 0 0.1097625 
-0.551662575 0.225075 0.1097625 -0.551662575 0 -0.1096875 -0.551662575 0.225075 -0.1096875 
-0.519712575 0 0.2152875 -0.519712575 0.225075 0.2152875 -0.519712575 0 -0.2152125 
-0.519712575 0.225075 -0.2152125 -0.46859719259 0.0014728644893 0.31081567789 -0.46369882934 0.22441617384 0.31739801328 
-0.4676625 0 -0.312487425 -0.4676625 0.225075 -0.312487425 -0.397762575 0 0.3978375 
-0.397762575 0.225075 0.3978375 -0.39302506235 0.00018855831172 -0.40164584029 -0.397762575 0.225075 -0.3977625 
-0.367612575 1.965 0.2305875 -0.35905244926 1.8883579311 0.22847931307 -0.3525375 1.965 0.2868375 
-0.3525375 1.90875 0.2305875 -0.35440731989 2.0142730948 0.2305875 -0.35204223866 1.9628652406 0.17462213459 
-0.34772643107 2.0293696048 0.23294189863 -0.34726449711 2.0383686469 0.21104933749 -0.34604423394 2.0487840582 0.23111480668 
-0.346012575 1.8912 0.2830875 -0.346012575 1.8876 0.1780875 -0.34368995679 2.0332345967 0.19369861883 
-0.34734924093 2.0179872333 0.2532007477 -0.34185613325 2.0406444126 0.25656602752 -0.3407962928 2.0505194471 0.19211263627 
-0.34168628744 2.0613669669 0.20818615711 -0.3402741285 2.0227002042 0.18502634537 -0.339487575 1.90875 0.2792625 
-0.34049502141 2.0160073731 0.28017734165 -0.339487575 1.90875 0.1818375 -0.33907627316 2.0642522098 0.24363074315 
-0.33763750041 2.073405025 0.22161571434 -0.33531698875 2.0408087091 0.17656655041 -0.33369336513 2.0319263608 0.26101949947 
-0.33434602044 2.0263050451 0.2774979577 -0.333187575 1.8894 0.2305875 -0.332437575 2.067 0.2359875 
-0.33138140492 2.0806520432 0.20486735955 -0.33249471555 2.0650476188 0.18394033427 -0.32972046211 2.0416387429 0.24307608001 
-0.32924531957 2.0838784063 0.23964609814 -0.33027582559 1.9919399955 0.29922122759 -0.3282286019 2.0217145983 0.2943051882 
-0.32439208302 1.1268374376 0.24254842339 -0.32370610984 1.1260852389 0.19115113082 -0.32432206028 2.0921504458 0.22429235056 
-0.32238098993 2.0529731716 0.16245607949 -0.32263445638 1.8908075349 0.27160369995 -0.31980457687 2.0938995413 0.24127181191 
-0.32221655413 1.8881568881 0.1943218191 -0.32440859281 2.0310648784 0.16013503321 -0.32165376534 2.0851979612 0.18742917317 
-0.31820276371 2.0750878708 0.17069939291 -0.31916965143 1.0428261764 0.14178205482 -0.31745701892 2.0280709044 0.30537074762 
-0.31611102742 1.9871500269 0.31613000057 -0.31686106181 1.0969815578 0.22862126977 -0.31743336744 1.1517412782 0.22835223926 
-0.31642146504 1.0985663598 0.18337613187 -0.31401992628 1.1556700109 0.18505586797 -0.31655438553 1.1520479393 0.16421828337 
-0.31719673033 1.1252215919 0.15870764112 -0.3151125 1.679475 0.2379375 -0.3151125 1.7995155 0.233736075 
-0.3137851125 2.02376025 0.3015357 -0.31966083607 2.0048617774 0.1560017456 -0.31882334719 2.0956508093 0.2060891521 
-0.31123110885 2.065088438 0.15700872594 -0.31311465 2.060116125 0.232654575 -0.3124875 0 0.4677375 
-0.3124875 0.225075 0.4677375 -0.30975366062 0 -0.46912532328 -0.3124875 0.225075 -0.4676625 
-0.31232171465 1.1486444318 0.1638321863 -0.31105294071 1.9627007355 0.32747907063 -0.311362575 1.965 0.1330875 
-0.17932287292 0.52656057958 -0.33379750355 -0.31490141433 2.1011275753 0.22949721201 -0.31106432499 2.038711124 0.14862257922 
-0.31030946019 1.12515 0.26440953131 -0.30923030578 2.1016972516 0.2462738002 -0.30711506794 1.0948349731 0.15378561756 
-0.30743476322 1.8918296713 0.32120479527 -0.3076125 1.88625 0.1396875 -0.3075375 2.0919 0.2359875 
-0.3075375 2.067 0.2293125 -0.3070875 1.680525 0.2678625 -0.3070875 1.678425 0.2079375 
-0.3070431 1.798449 0.203692275 -0.30691256125 1.8005861678 0.26389288001 -0.30444965166 2.0920459256 0.17314552742 
-0.30449919701 0.8927052591 0.11231709895 -0.3076873221 2.0134096862 0.14716254954 -0.30119572172 2.0041591506 0.32680454598 
-0.30068472042 2.0291610187 0.307258042 -0.304087575 1.097175 0.2479125 -0.304087575 1.153125 0.2479125 
-0.303787575 1.90875 0.3149625 -0.30472936793 2.062425 0.25521568549 -0.303787575 1.90875 0.1461375 
-0.30070886232 1.9725842413 0.3308290819 -0.30234595832 1.0294473631 0.062785852488 -0.30870308436 2.1054264246 0.21112516466 
-0.30000820251 2.0563871298 0.14536551267 -0.29685378456 2.074646033 0.15209502328 -0.30582390427 2.1019333989 0.19236655182 
-0.30140374338 2.0356576984 0.31534515656 -0.30325176941 1.1648157225 0.16777048874 -0.30061413628 1.1487772406 0.086853747999 
0.14807774517 0 0.23797302133 -0.29674464072 2.034789456 0.13934435211 0.34121676793 0.081792806239 -0.27648405185 
-0.297262575 1.236 0.1826625 -0.29633334409 1.07725182 0.18434406428 -0.2958375 1.1736 0.1898625 
-0.29456372843 1.8918915125 0.30244709247 -0.29152704739 2.004993407 0.13849868177 -0.2930237965 1.0777488233 0.15081268488 
-0.2925772647 2.1079309532 0.2571905016 -0.292485525 1.12515 0.2567811 -0.29194648353 1.6795608498 0.24038143064 
-0.29222990105 0.22508088772 0.29012006424 -0.29274324343 1.1743565469 0.17046561833 -0.29736516821 2.1117027258 0.23915834711 
-0.29551283953 1.8872082962 0.16730070047 -0.28608225094 2.0347225166 0.3062298897 -0.17478094321 0.090095497879 -0.24317610899 
-0.28911920633 0.90594540282 0.039286211364 -0.28745543413 1.9300416621 0.3250416742 -0.27952469165 2.0382909367 0.32434034252 
-0.28916878512 1.0777806655 0.20315634348 -0.29057255423 1.1708019166 0.20699966914 -0.28845029211 1.1551841714 0.24065776921 
-0.288246225 1.07535375 0.150672825 -0.28664305142 0.3060350191 0.26614428085 -0.287804175 0.225075 0.27072615 
-0.2876638875 1.097048625 0.2397506625 -0.2875908 1.678817625 0.219160425 -0.287587425 0.225075 0.30746415 
-0.287587425 1.68013125 0.2566467 -0.29161985989 2.1132348646 0.20142848802 -0.28530166478 2.0619933719 0.13991206792 
-0.2864542875 2.04413175 0.3169564125 -0.29326221468 2.1153382183 0.2198669739 -0.28307202945 2.0474676416 0.13550586401 
-0.28685863352 2.0942362567 0.24412138414 -0.28669195413 2.0897886574 0.15799281232 0.19392657634 0.18260567204 0.049987766508 
-0.28563227946 1.1762095449 0.17136029495 -0.28976417123 2.1059985701 0.18129456733 -0.28667428257 2.0199548971 0.32976563366 
-0.2851125 1.681275 0.2898375 -0.28729563509 1.6777495097 0.18814563509 -0.28326578051 1.7993787552 0.28620169756 
-0.2847799875 1.03279425 0.14226315 -0.28481430324 2.069173554 0.23600497207 -0.28603305151 0.225075 0.097950420317 
-0.27897987167 2.0626183817 0.27968829856 -0.28207814347 2.1064544109 0.26782458081 -0.28332654548 1.7991070286 0.18047977466 
-0.282112425 1.226625 0.1006125 -0.40264372083 0.225075 0.13796715502 -0.28193075589 1.9833564029 0.34076374268 
-0.28111909343 1.0752423605 0.12692695541 0.10667766451 0.87531035277 -0.0030996700113 -0.27425310151 1.9840852861 0.33282979798 
-0.28059045972 1.1575907362 0.22794062988 -0.28028746004 2.0275333115 0.1329971029 -0.27241583262 2.07078525 0.24766364238 
-0.27626492243 2.0743093425 0.14313760235 -0.2767875 0.76365 0.0880875 -0.27556535909 1.6805420081 0.26866831591 
-0.275436 1.20960825 0.1789158 -0.27509991665 2.1134779168 0.18547206458 -0.27436854411 1.0767 0.19330046565 
-0.27058430737 1.9230938631 0.3318937693 -0.27429183349 2.1013856392 0.27798208913 -0.273862575 0.225075 0.3212049 
-0.27084138095 1.6783191081 0.20461484183 -0.27348523144 1.0969192502 0.22562651236 0.37263748126 0.14359557397 0.017272741048 
-0.27172168565 1.1541782986 0.22179608741 -0.27242168186 2.0081922389 0.13362068362 -0.46568066467 0.11220808692 0.31498025664 
-0.26364534516 2.1102037065 0.26872083231 0.30933144976 0.225075 -0.16702156784 -0.27045838215 1.0790241058 0.091154098902 
-0.081048402965 0.82187355757 -0.17864982062 -0.27059882063 1.0184184152 -0.0098321185776 -0.27101811109 2.0667210411 0.31033869875 
-0.270412575 2.119125 0.2470125 -0.26927945738 2.0906325677 0.25991019366 -0.27022201438 2.0444426158 0.30075511758 
-0.27202359115 2.1017503811 0.16481097241 -0.27310028323 2.1200565977 0.2055626412 -0.2695125 1.111425 0.0091875075 
-0.26888588962 2.0292015142 0.33106889145 -0.26822600503 2.0926738303 0.29007607903 -0.26570967418 2.1226978155 0.22752717148 
-0.26714363394 2.0883682881 0.1506410474 -0.26918724624 2.056481809 0.1339391756 -0.26716873956 2.0198140377 0.32514998758 
-0.26709395878 2.0798338262 0.30081871788 -0.2691487125 2.0159301813 0.33687998008 -0.26539792262 1.0701492219 0.13963238931 
-0.26735631525 2.030253557 0.31571113643 -0.26041510828 1.9867584476 0.34494035096 -0.26736802246 1.1982754332 0.15093176377 
-0.26501740952 2.0096086245 0.32846130377 -0.26394279807 2.0692631959 0.25905614357 -0.2645625 1.27095 0.1921875 
-0.2644941503 2.048019156 0.32241238566 -0.264487575 2.067 0.3039375 -0.264487575 2.0919 0.2790375 
-0.26810782022 0.94338169283 0.12529984513 -0.26467756441 0.7962507325 0.015107080746 -0.262162575 0.238425 -0.1093125 
-0.262162575 0.3273 -0.3103875 -0.26503890661 1.0371695884 0.076269208757 -0.26274852563 0.93424446242 -0.024670297234 
-0.26297194376 2.0412274919 0.13038131541 -0.2615137875 1.125195375 0.221440125 -0.26215496334 2.0595701597 0.28778375173 
-0.26121560183 2.0012222774 0.3415269309 -0.2600106697 2.0661354236 0.27172532697 -0.25699249434 1.0785776051 0.16978207689 
-0.26061523282 2.046359744 0.30140972124 -0.25612611771 1.0764115538 0.079047050441 -0.25733211014 2.0729233725 0.13939714801 
-0.25988633113 1.1793053935 0.12349505025 -0.2578125 2.067 0.2790375 -0.25746507646 2.1159938656 0.18662373647 
-0.2572867875 1.226074875 0.183597 -0.25650728195 1.9210984441 0.33286017005 -0.25688964554 1.999532234 0.33333714348 
-0.25285081272 0.89426412406 0.11643563731 -0.2558625 1.1703 0.02216253 -0.25328835021 1.8022838192 0.29354688246 
-0.25649925757 1.9638168009 0.34237917612 -0.25139797012 1.9846632473 0.33684201509 -0.2550375 1.893075 0.3355125 
-0.25383976331 1.9059833364 0.32492328479 -0.25272584014 2.0205376484 0.32758365352 -0.26040786854 1.8922668357 0.31254470152 
[...]
CELL_DATA 27433
FIELD FieldData 1
color 1 27433 double
3.3035350435 3.2339973014 3.4492215014 3.2722923544 4.1137664436 3.3528005696 3.2530302876 3.5793209954 3.5080826857 
3.7982207474 4.3181368798 3.3174508536 3.0926654706 3.5619983668 3.181999999 3.6921279407 3.8937492279 4.162292326 
3.4454291809 3.1985076438 3.5086302735 3.346243231 3.341847443 3.6551348451 4.6547882334 3.4470659738 3.1910545107 
3.7292072684 3.921770057 3.1050191059 3.1754891114 3.7375774046 3.2339175101 4.0849913987 3.2484164606 4.0371516599 
4.2048638423 4.0099738903 3.3044964765 4.0133567152 3.4417408528 3.3522644502 3.1640533168 3.0563795475 3.0962168427 
4.041321263 3.5441693237 3.4952968854 4.3662791537 3.3972987818 3.4187826626 3.3041658463 4.2703400829 3.6776613026 
3.5785460021 3.1759542778 3.2999574456 3.8158074721 4.0429919027 3.6567923223 3.3787557729 3.3635142261 3.16330455 
4.0109998005 3.8863483218 3.7400560304 4.1014661257 3.3561875521 3.3417232915 3.3891141889 4.138723453 4.5741932801 
3.9016694517 4.9171522657 3.3642489503 3.3028264967 3.3931547782 4.0350080511 3.4097035925 3.916999143 3.5678133752 
3.9216087983 3.4062587972 4.3007296632 3.8818598371 3.4013906473 4.1549995116 3.7090019473 3.4562841608 3.7375621231 
4.1012372622 3.5012741545 4.0262064056 5.1447359769 4.0863361487 3.3593633428 3.2511093891 4.2314951724 5.0063201617 
3.5194589663 5.061047963 3.4949209337 3.3827130591 3.265380966 3.2080499976 3.1611516872 3.6342479986 3.9566206359 
3.6035978488 3.6891591178 3.1968338079 5.0692293184 4.3794840735 4.1919253171 3.7065749321 3.2528313287 3.313492813 
3.7244706749 4.6744615129 3.426542622 3.2174739094 7.2233287783 3.6289922307 3.4341388308 3.2933209121 4.7713548969 
4.5955321663 3.5369100991 3.6480301071 3.9596982074 3.197308438 3.5952441639 3.4428798965 3.6121832582 4.4779637636 
4.0356525332 3.3912719275 4.22027468 3.3673565667 4.9203411311 3.7607139898 3.3003651588 3.1974902321 3.4188510299 
3.6188232682 3.4567071062 3.359745167 3.1083079939 4.190310607 3.8096022404 3.6871817541 3.8911126876 3.2100894697 
3.2283763915 3.5874155299 4.0193919025 3.3484294405 3.4820224232 3.5248608272 4.4019392319 3.1881556888 3.7108798642 
3.8973359827 3.3825127412 3.5961748756 3.7386034056 3.3773910362 3.7040116501 3.3529914007 4.784005617 4.4033155328 
3.4312159218 6.7598541813 3.6655238472 4.1150760547 3.5895739539 3.7001695316 3.3293285769 4.3768389102 3.46838567 
4.2006839635 3.1072117649 4.3240118247 3.807587896 3.1860850624 3.0760021263 3.7738280826 3.7049338075 3.8435941919 
3.2819310795 3.6311640084 3.6862049264 4.107490749 4.4506182001 3.4336567593 4.9164933878 3.5956762875 3.4526168302 
3.2305526774 3.420532433 3.3996152598 4.1542366815 3.4373456304 3.6369551737 3.8858961991 4.2733454965 3.2659608224 
3.3488312746 3.753572083 3.8642141691 3.3874175088 3.8230632542 3.3657666576 3.4975937232 3.6105188943 3.3210305322 
3.7183858877 3.2165192866 3.260468582 3.3276161171 3.1675895606 3.604568104 3.4458540956 3.4846705319 3.2027553378 
3.5113626531 3.9287552712 3.297118916 3.1277616522 3.3337175089 4.7206705007 3.531576256 3.600020266 3.8744166022 
3.3111947397 3.6779611688 4.2784753618 4.0108244625 4.3981492145 3.16979883 4.6365498979 4.1262483062 3.2430917297 
4.26258038 3.3694270801 3.5905204537 3.0940300611 3.3011403842 4.4228584878 3.6809380757 3.5337270585 3.726704633 
3.8643458108 4.1149304835 3.32184243 4.1049233569 3.8772863765 5.0062237937 4.0593313909 4.9001525689 3.2306383062 
3.8016375479 3.9050051441 4.1900475995 4.1986751433 4.0163555076 3.401511241 3.9093192089 3.3656223169 5.8188009326 
4.184194408 3.4382562889 3.3463105634 3.1283239718 4.0010752038 3.7314622067 4.4188906456 4.1845198831 3.4549894028 
3.3730351155 3.5280911948 3.5585875684 4.282909058 4.0011176887 3.8650901671 3.5026440706 3.3869112751 3.3568571936 
4.1598627901 4.2334438698 3.5677947739 3.4884694712 3.9812355662 4.2870989634 3.1688471633 3.7678813797 3.8034668916 
4.3628338258 4.8819552346 3.9290159108 6.9105133717 4.458454327 4.4324602037 5.9146658415 3.5765257637 3.3001735843 
4.8973700438 5.0669101147 3.61771293 4.630834281 3.7218709522 4.8460252533 3.4126026568 3.5403161728 3.5334532778 
3.2554985699 3.5072548725 3.4897302947 4.7462126871 3.2568735471 3.281709363 3.2115875745 3.332611579 3.5842610827 
3.3144785324 3.2674269241 4.1238365656 4.2364069585 3.7491566267 3.4433241712 4.2473325917 3.6361495231 3.2649440268 
4.7042833689 3.1819195185 3.502477127 3.0732818801 3.9460834968 3.5872415003 6.3245762899 3.8411645984 3.2939737216 
3.7980524167 3.2020842311 4.3801833434 4.4852061062 3.0795402014 3.2813867206 3.497436957 3.8017848366 3.1972911076 
3.2107530679 4.5215062237 3.706437073 3.697341522 3.2843330299 5.0882455266 3.2136420938 3.3815386298 3.8887565164 
5.5405320506 4.1454678713 3.8509347578 3.1687841313 3.205512414 3.8786715165 3.5909860817 4.1832460319 3.5341687373 
3.435039105 3.5614927194 3.2211079508 4.6407815557 3.4556335798 3.7969059474 3.384965801 3.6644634301 3.4523272061 
3.5745443864 3.7339916216 3.5560406177 5.6922301706 4.2921638798 4.8944199367 3.3820711978 3.2408697788 3.3774922915 
3.6117143183 3.6302328166 3.6415048505 4.0121127362 3.6766017337 3.4914910205 5.8000976274 3.4547862378 3.4533418789 
3.8993223099 4.6849116823 3.5695637354 4.7733496161 5.1850440934 3.9576756674 3.3362331984 3.6791602317 4.8293342383 
3.3897463293 4.6109730728 4.5371604226 3.8546634261 3.7341227512 3.7264060626 3.0731536869 3.2065674099 3.5682210087 
3.7198439789 3.7549508558 3.4014140663 3.3222491557 3.3371044925 3.782539334 4.3784160701 4.2994839091 6.098811007 
3.7845872639 4.0429023826 3.4864790318 3.3350181772 6.4390064845 3.6276612951 3.3687489899 3.4603578812 3.1514474293 
4.0316110335 3.6917151732 3.8139330527 3.3962125753 3.4057206947 3.9490957954 3.3060917665 3.3860738847 3.6672968608 
3.3323053151 3.157960391 3.0920248475 5.0717025858 3.5781151167 3.1066578191 3.4885024962 3.3655288972 3.8108091964 
3.7650418033 3.2187598612 3.3532555021 3.2805027634 3.7131031138 5.1836123789 3.761593013 3.2768766306 4.7660661064 
3.2389310771 4.0103726153 3.8426884558 3.7531429902 4.16218409 3.7492206683 4.34636605 3.9727962166 3.1785045996 
3.1859234959 4.2042733323 3.925566955 3.596660459 4.374177364 3.1246914149 3.5782440257 3.3545663646 3.2959877083 
4.0516199688 3.9237194067 3.4135875788 3.5086125227 3.9535034723 3.5831200109 3.7647536765 3.8347479022 4.0669992521 
3.2090168776 3.5760413414 3.5373633485 3.302559501 3.7958011475 3.1454369782 4.6260827201 3.7196992248 3.5055730203 
4.6577939477 3.6401331344 3.2328993038 3.3612769701 3.5851606168 5.1363424793 4.1201328375 3.6110157014 3.7468216937 
3.6745172307 3.8599842149 4.5132149404 3.3726259134 3.3953079095 3.8449046625 4.5476010947 3.1349971837 3.4284406765 
3.3392510839 3.4453815008 4.2193307293 3.5933865237 3.9706107707 3.4033616804 3.8202913652 3.9465609857 3.3721411097 
3.403255974 3.2350719608 3.2713391688 4.0831250745 4.1463442069 3.2882554399 3.4709109305 3.2476250161 3.8900057717 
3.7487254959 3.4896156064 3.3335144712 3.2954116357 3.5079506718 3.5781550455 3.8106468652 3.1210247511 3.8186468057 
4.3535275444 4.6612479145 3.7351915607 3.3609554481 3.653510182 4.2640055834 5.8154521741 3.965360718 3.8880798653 
4.0441514551 3.2849143882 3.9697584152 6.7856873157 4.4831256755 3.4662783506 3.4331009428 3.8754889344 4.4252751151 
3.8514709713 4.4608820683 4.0066374087 4.3199709736 5.2200572376 4.7234395926 3.7056910405 3.9618615825 4.0434123243 
3.6974239025 3.2438568992 4.330911788 3.7478008803 3.2499918658 3.4653430776 4.611719546 3.7693680571 4.5010712949 
3.4580947709 3.1583284871 3.3707857469 3.2926732084 3.539711177 3.7329488167 4.468292638 4.5090695784 4.3519679803 
4.9828922838 3.4625291811 4.4173038334 3.4198348747 3.9509870065 3.9968675605 3.3543329326 3.8681484172 3.2630800812 
4.1858876572 3.4059496377 3.4719746675 3.6573486903 3.0724065779 3.5241495047 3.1578497187 3.4047101991 4.0650021023 
3.4904757064 3.7979018066 4.0034437018 3.3916962034 3.394283479 3.7774384804 3.4453674064 3.3085260798 3.2910413946 
3.723988712 3.4915387346 3.4205342895 3.4393083116 3.3134024579 3.8692956587 5.7230436805 3.7914668548 3.5735942398 
3.4862340911 3.1926326897 3.0771666941 5.3102986145 6.6816434902 4.4312905944 6.5506024803 3.8406953741 3.4351216666 
4.0387552207 6.9050098847 5.7582740119 3.1736699178 3.4238973359 3.1892767083 3.6229267726 3.558621128 5.3602367337 
3.330451707 3.1599695168 3.3329440289 3.2796163563 3.4479040078 3.9173117375 3.8940431325 3.2906466953 3.1034416942 
3.7756327334 3.7183865739 3.4484572267 3.9118074677 3.1729719932 3.7011451935 3.1538518624 3.2345852304 3.9621698316 
4.1740046825 3.4210110092 4.118588534 3.0627730751 3.5460639188 3.7441903026 3.2486781423 3.6347515511 3.5411833499 
3.555119435 3.6546097648 3.9602215751 3.3676786684 3.6393196694 3.6747080969 5.4510842282 5.4609722657 3.3096449629 
4.1554703329 3.112240495 3.3442929897 4.3434867102 3.5359964867 3.3373635246 4.0738069277 3.282046367 3.8340151414 
3.7533549463 3.5439057573 3.1368474839 4.4693467249 3.8779742407 3.4406421755 3.260215106 3.6343801317 3.5639734914 
3.5310261972 3.4928864929 3.1514272508 3.1412715016 3.7788791424 3.6415564848 3.5109138001 3.4890300116 3.3110825501 
3.6022385998 3.9622204151 3.3026707886 3.0406661414 3.5293068374 3.585744015 4.0607720588 3.6728001306 3.7236472134 
4.3116516483 3.6537541288 3.6224601506 3.2866455678 5.9810181076 5.0784005666 4.6162235858 4.0223010428 3.57711148 
3.4937451244 4.1563150106 6.0600691542 3.2170300778 3.5430891207 4.2854056909 3.5739518456 4.2993853438 4.1071941299 
3.4428927369 4.3773249145 3.2005568708 3.3619693391 4.0321379308 3.5755660689 3.7734337497 3.4040068567 3.720912702 
3.9214416531 3.2683698762 3.6340669826 3.3053790445 3.1303945085 4.0062329829 4.0231049875 3.8033973361 3.9729452869 
4.9358010625 3.4538440899 3.7616585364 3.6100941194 3.2254971847 3.4112578019 3.2448528004 3.1067910449 4.3200780494 
4.1149980483 3.3323601751 4.2426679173 3.756229139 3.6542000956 4.6296915961 4.4808916232 5.639679377 5.83258879 
4.7243940611 4.0133043317 3.4450425077 3.5446677553 4.2635788331 4.0327139132 4.214711048 3.2802793013 4.1703041339 
3.4295105103 3.0917673786 3.246193162 4.2376395918 3.5602634952 3.5348499622 3.3126501592 3.5487000821 3.6332921589 
3.8618984954 3.263779147 3.8774861788 3.4622200192 3.3842250985 3.9915779479 4.1270824707 3.1647784139 3.1650212919 
3.8826510239 3.2572427401 3.5637250481 4.6442351804 3.8167344987 3.5258552302 3.5945103451 3.5807001803 3.7282987156 
3.3042774856 3.440983949 3.6842239927 6.2256892738 3.6934112018 3.8069092967 3.076061197 5.0581587246 4.7490633565 
3.4039842551 3.6159268374 4.6255138271 3.3260633015 3.2786374561 3.481234282 3.2618007424 3.7070406629 3.2924801382 
6.2507434078 3.2586969363 3.8881982728 3.5262568642 3.9354476763 3.528734852 3.4630233125 3.598138321 3.0434492714 
3.0088252416 4.4713250246 3.6353966869 4.0782805372 4.7961018886 3.2122806366 3.4242247765 3.1364199081 3.6834211353 
3.8413891725 4.1351499718 4.1211468669 3.2996347954 3.9481096305 3.8820360068 3.5696364969 3.1696798085 3.3635347152 
3.800295125 4.0378044598 3.9269224305 4.3230804931 3.6122683721 3.5732554732 4.579460667 3.3391613604 3.2137575447 
3.6818003674 3.5267487519 3.7980078901 3.6664915261 3.643083417 3.8954866701 3.5249815531 3.2717659705 3.3141150089 
4.4654692857 4.5949544619 3.9461962001 3.0181159996 3.2314333367 3.8219642524 3.5872371134 3.4533928422 3.945706028 
3.7860354298 3.737430919 3.367755773 3.5561285185 3.30414405 3.5623994162 3.1880529654 3.3657821632 3.6081176598 
4.2792758403 3.5225544187 4.1141873851 3.8577113741 3.4719084455 3.7280161346 4.0125217894 3.826601239 3.7820161199 
3.6185274332 5.8875264939 3.5386684084 4.0060058625 3.3221985688 3.9444255158 3.4572377098 5.9820558463 4.7190158027 
5.7578625571 3.612715166 3.7598933909 3.6540399179 5.0808939647 3.2897427214 3.8405748988 3.2796897476 6.2904971118 
3.0327268614 3.0594691828 3.4017820644 4.0062798641 3.3341910562 7.0538654291 4.1845828823 3.7382633932 3.816326538 
3.5776973027 3.1338997758 4.2970971281 6.6129273948 3.9462711704 4.869481853 3.5385085512 3.3278828027 4.0864675704 
4.4233941451 4.4123765319 3.6839447767 3.5207650965 3.8568603904 3.7695050538 3.490783037 4.1473711354 4.2968343519 
4.7874421398 6.4402743644 3.1593240263 3.5626420239 3.3296877816 4.2867761365 3.7545780093 3.8473304004 4.3536660542 
3.3391007199 3.3984607321 3.7759845304 3.1354004847 3.1699715149 3.8065339499 3.5017490445 3.595327491 3.4734529647 
4.0067545925 3.3182989433 3.7838870144 3.6361452467 3.2929829773 5.6566089661 4.0219816677 3.5871789119 3.289525107 
3.3264876851 3.9471528812 3.9410088379 3.2483936322 3.670210922 3.2943879329 3.498101491 3.6844041188 3.5721394794 
3.9845476045 3.6295410592 3.8602174556 3.63528146 3.7441458209 3.9256669831 3.5417262336 4.3027730589 4.6225180319 
3.2094106713 4.5943740002 3.5889478641 3.5807977869 3.5396145595 3.7031241309 3.7024334998 4.7029004099 3.7364636543 
3.1214785506 3.3069965607 3.3974869471 3.3406378666 4.224668693 4.9255741891 3.9506057229 4.0927685677 3.1372537968 
3.2797978888 7.5125370611 3.0847864131 3.2467631772 3.9670148306 3.1646099762 3.5463846072 3.7129017627 4.3766216768 
4.5548274917 3.5503015965 3.5124107877 3.9517718473 3.5550512418 3.7114954299 3.6999657963 3.2339529038 3.301907797 
3.3379613912 3.7923865006 3.3676669537 4.6473447321 4.2287552373 4.4429579253 3.5540410547 3.147148229 3.7263926379 
3.2262114672 4.4592443939 3.0699920976 3.7856859196 3.6166401827 3.2631174934 4.0565155221 3.7975770268 3.7494799978 
3.2254279814 3.3554539563 3.8837198052 4.2118110959 4.0379492217 6.3247526489 3.89523502 3.7207097313 6.3136582055 
3.5690939513 3.2054207575 5.1645212375 5.8810397484 3.872394651 4.6552032245 3.5153566981 3.5082887595 4.0934028308 
3.7587048892 4.3264447702 3.2975734749 4.0808244085 4.1485540629 3.3445688434 3.6020987588 3.7253900056 3.9644846026 
5.4683998546 6.1098410395 3.1348095841 3.169190579 3.4453819854 3.7546302192 3.4529760118 3.1345954639 3.2248196344 
3.2831624279 3.282927233 3.3474599231 3.3991910115 3.5525174389 3.7292450264 3.1527627164 3.3536123951 3.2640059383 
3.6654458452 3.3274499997 3.1426799495 3.1207873924 3.1827593405 3.2811315245 3.5223126737 3.5504357838 4.0229763361 
3.503640106 3.925279518 3.4859816943 3.806773195 3.5689418321 3.2553707494 4.56710767 3.1644754378 5.1922660983 
4.0705773362 3.8928282584 3.2250271885 3.8541330135 3.8029571635 3.1903712972 3.3736650041 3.9154326894 7.2450351252 
3.7022990893 3.3687525446 3.8140385046 3.3790036177 3.5620507961 3.6480949835 3.6161091307 3.3051099057 3.4189333273 
3.6137829354 4.6111037428 3.3448526289 3.2018369268 3.1901890167 3.8525084907 3.8651490354 3.5187680727 3.4476323754 
3.330775197 3.3722942438 3.5072386884 3.4892934744 4.1341742576 3.7252343438 4.1626246328 3.9442762731 3.5149829855 
4.0604585934 3.0802614177 3.2648838245 3.3878463192 4.708022355 3.558957551 3.1653477236 3.6325835131 5.0633322029 
3.1501258637 4.0903906482 3.5006520563 3.4994148881 3.5302661714 3.573972408 3.5490244877 3.3061298477 3.5523099221 
4.6035366587 4.4640928134 4.9168254027 3.9170099292 3.6468050597 3.16667643 3.5161311662 3.530079899 3.6174394563 
3.5662163878 4.5771146741 3.3545511146 3.5412825656 3.3177095472 3.3548571169 3.2106997869 3.3884435875 3.8086779751 
6.1770029716 3.9424464491 4.2750397277 3.75098828 3.380348268 3.4306887159 3.3905132349 3.1631166389 3.3107712906 
4.2400823306 3.7418390493 3.3539549809 3.1411413946 3.4446507603 4.7693140323 3.8345826269 4.0404541832 4.7418966759 
3.5023937322 4.0100936175 3.7057871241 3.1020854037 3.6520626748 3.4423775558 3.8181921622 3.1582668398 3.210912282 
3.4658703115 3.6081475057 4.0768593169 3.7530961206 4.2634939599 3.1477497831 3.182953897 3.8938854512 4.2509673362 
3.8752729339 3.705057073 3.8028354448 3.6954091112 3.2126627686 3.2095309435 3.7737439526 3.7629789217 3.3926983785 
3.4675130269 3.4297743288 3.6033056327 3.684581807 4.2999183066 3.1482804849 3.5799620916 3.4477957114 3.4451024544 
3.7907372665 3.3782162986 3.1362179108 3.3157670766 3.8507103794 3.26799571 3.6417550476 4.1806303619 3.2109551006 
3.2204946946 3.1093930255 3.4916030179 3.2885681137 3.3242373739 3.382402873 3.4566270333 3.196809165 3.6136227678 
3.3224763215 4.0351331791 4.2071366808 3.2219485123 3.4684361802 3.737762321 3.3279383321 3.2463762503 3.3515868062 
5.0691073037 4.0980569185 3.3790847087 3.3987575696 3.1660546749 4.0696112176 3.3897438409 3.1868368935 3.7261455043 
3.7580381664 3.9033505999 4.269754305 3.9099970402 3.207666228 3.4748997689 3.5435532585 3.3096023046 3.9383911465 
3.5595474373 3.2661774656 3.4160859809 3.6454573363 3.7825789996 3.9005753797 3.7278012026 3.7918535519 3.119861437 
4.4787088403 3.8856489778 3.2113603756 3.0961918542 3.8768890764 3.2128173498 3.0821736178 3.590693074 3.6388563267 
4.7081517055 3.8270192269 3.6973596547 4.2308638979 3.2064363619 3.6112449899 3.7594521732 3.9718739929 4.6538430011 
4.6126716048 3.1426030575 3.1106058242 3.472479027 3.3408876016 3.2187743708 3.8747830843 3.9329548491 3.8143982487 
3.1302660861 3.2478633584 3.3277990334 3.4092157101 5.9012337087 3.6174638613 4.2442804966 6.4676255903 3.2334815927 
6.1843358348 3.2690726795 3.352559345 3.616455538 3.3270134318 3.428586299 3.1717900435 4.8652249571 3.663159237 
3.5439336754 3.3868320839 3.5086251683 3.3044103765 3.2691331078 3.8011970077 3.5749121277 3.4053164746 3.8170622825 
3.2951148481 3.7881966048 3.3737568214 3.3384366626 3.0305512902 3.4175114565 3.7729854788 3.295543318 3.6231887981 
3.4178327588 4.5328354122 4.6482868699 3.4922899836 3.3526187743 3.6856487357 4.6246107287 3.5160127583 3.6760660428 
3.976306939 3.3461668629 4.3074839373 3.3219972351 3.2965060465 3.3652454359 3.5541122104 5.0699773154 3.7877589074 
3.9076495668 3.1322587722 3.3503484273 3.8631794571 3.3922918775 3.5520419599 3.8231242347 3.2129240268 3.7010590239 
3.5170355772 5.4900542294 3.7594749756 3.5982059329 3.4317354974 4.2993244347 3.70370467 3.5345881104 3.1948086063 
3.3880558139 3.0935482579 4.0484690756 3.4481486252 3.7679753287 5.1495128821 3.083666475 4.8849056563 3.2845369247 
4.0337928779 3.8726156795 3.2220399226 4.2763552787 3.3829921106 3.1785751684 3.9998631546 4.1142567066 4.4671977219 
3.7331062615 5.5765405307 3.8186625414 3.4267321222 3.9688081973 3.4864074368 3.6798870553 4.7604190904 4.3525133672 
3.5279001271 3.4319791094 3.4652214053 3.9745790342 3.837203037 3.9771959293 3.5839781289 3.1578436377 4.2992333432 
4.0199744796 3.9390816423 3.3731130505 3.7807290288 3.6035344963 4.5539089308 3.6916538675 3.5596129668 3.7051285533 
3.5489152572 4.2390208871 3.4871744242 3.3386128304 3.6502794077 3.9423598505 3.5907037678 3.49405763 3.1208827579 
3.7531315995 3.2678812601 3.6697782471 3.799699757 3.7572210427 4.6115972988 7.1259054292 4.8433658798 5.4758185829 
4.7532020816 4.4309203786 3.9935529968 3.349492582 5.633125698 4.2134644629 6.3922653865 4.3439666034 3.7562544851 
5.5755113626 5.3644538149 5.2118746558 3.6281326323 3.2405762554 3.7475550495 3.2804283382 3.5525949067 3.8816137689 
3.4943833831 3.8372920758 3.3541659843 3.451770476 3.528294167 3.5635877409 4.2761494292 4.2288692523 3.5715475433 
3.3941978579 4.1951102398 3.7939277506 3.3130531301 3.4568745848 4.2129400072 4.0038937033 5.8620823666 4.6462602824 
3.6318931527 3.9070467355 4.5976014277 4.3300885313 4.4416630876 3.309291639 4.0230478546 3.3283240481 3.5841204054 
4.2600050571 4.1996883108 3.7860948898 3.539985199 3.5141364437 4.0232206264 4.1919521519 4.1887014106 4.382869481 
3.6530939142 3.808586246 3.4730320406 3.3500861731 3.2187802264 3.1286245444 3.1278052495 3.3337334632 3.5425511241 
3.7664768529 3.5213481052 3.4326886448 3.5842821299 3.5271834296 3.7644220305 3.2714166296 4.256408919 3.1676441469 
5.014666223 4.7080277353 3.8954005281 3.6321826857 4.2214751383 4.5400837493 4.1008646751 3.7515374573 3.694246489 
3.3220834713 3.0213161373 3.4409134572 3.8685035867 3.3356966832 3.5692685969 3.3613906311 3.5064261049 3.5591597086 