# vtk DataFile Version 5.1
vtk output
ASCII
DATASET UNSTRUCTURED_GRID
POINTS 5212 double
-0.48010001183 0 0.069999998808 -0.48010001183 0.30009999275 0.069999998808 -0.46560001373 0 0.21630001068 
-0.46560001373 0.30009999275 0.21630001068 -0.46264009979 0.0013848068848 -0.086076052664 -0.46560001373 0.30009999275 -0.076300001144 
-0.42300000191 0 0.35699999332 -0.42300000191 0.30009999275 0.35699999332 -0.42300000191 0 -0.21700000763 
-0.42300000191 0.30009999275 -0.21700000763 -0.35360000134 0 0.4867000103 -0.35360000134 0.30009999275 0.4867000103 
-0.35360000134 0 -0.34670000076 -0.35360000134 0.30009999275 -0.34670000076 -0.26040000916 0 0.60040001869 
-0.26040000916 0.30009999275 0.60040001869 -0.26609537198 0 -0.45345190985 -0.26040000916 0.30009999275 -0.46040000916 
-0.18302682638 0.30009999275 -0.14271379709 -0.1743999958 2.3301000595 0.5993999958 -0.16708695889 0.30009999275 -0.25681302547 
-0.15548835556 2.3392864296 0.52969566655 -0.15402797877 2.3228967712 0.66768482072 -0.15470000505 0.32049999237 -0.30999999046 
-0.15260757469 2.3331390863 0.5996285533 -0.14670000076 0 0.69359998703 -0.14670000076 0.30009999275 0.69359998703 
-0.14670000076 0 -0.55359997749 -0.14670000076 0.30009999275 -0.55359997749 -0.14059419632 0.30009999275 0.018170131743 
-0.13839999437 2.6482999802 0.6375 -0.13759976625 2.3382704735 0.57511706352 -0.13669108152 2.3323560715 0.62383880615 
-0.12932021105 2.6428841023 0.62313822511 -0.12858727039 2.6377112731 0.64980338143 -0.12899806499 2.6878847122 0.64215703011 
-0.12355612192 2.6718195464 0.62776701412 -0.12323921967 2.6684288631 0.65203737148 -0.10612280313 2.6368347554 0.65844303909 
-0.11035466029 2.6482733139 0.61545263567 -0.10720000267 2.3544000626 0.47899999619 -0.096721247125 2.5795507529 0.65598612243 
-0.10397966202 2.3245437372 0.71818344842 -0.10200659828 2.3354276368 0.63833407122 -0.10430278006 2.3446920535 0.56102412335 
-0.099099734112 2.4908022299 0.61534243287 -0.10123273501 2.6240253027 0.63555374693 -0.098281301491 2.2191910732 0.58466257266 
-0.099181938387 2.6231646081 0.60872433418 -0.097011995503 2.4350285631 0.6118244314 -0.094462802483 2.5038744182 0.58605704087 
-0.095922466957 2.491883436 0.65082490059 -0.093698499004 2.614376128 0.65838079882 -0.088463485868 2.4033244938 0.56666710786 
-0.090322430606 2.4138451901 0.64673467138 -0.088481813669 2.2267728806 0.54502158165 -0.087393757747 2.5450146054 0.62238075349 
-0.086810393692 2.2145986272 0.62421204134 -0.22675257145 0.30009999275 0.34914528588 -0.083627271652 2.5487270355 0.59279322624 
-0.08479116795 2.5379928101 0.65473058048 -0.078736252726 2.6110543554 0.65972503912 -0.076300001144 2.0631000519 0.56529998779 
-0.075059928108 2.358059588 0.55642283749 -0.074458968746 0.9715613403 0.064690004787 -0.075268214941 2.3438520432 0.60096316338 
-0.073690080643 2.5561267853 0.5927670002 -0.074944795487 2.6177317309 0.60432287925 -0.078059458185 2.3651317797 0.64508678486 
0.048739950764 0.78348044057 -0.093783668951 -0.07160000205 2.6048000336 0.63109998703 0.53059071489 0 0.46958379716 
-0.069810205698 2.3503801346 0.5542634964 -0.06899227351 2.339550972 0.64443800449 -0.066399997473 2.0694000244 0.52550001144 
-0.012537958036 0.11262125346 -0.45696187028 -0.065296489739 2.5654224718 0.62655285801 -0.065900893187 2.550386519 0.65739272573 
-0.064725332178 2.6126014556 0.65951452493 -0.064999997616 2.0597999573 0.60500001907 -0.059605813684 2.5587653785 0.59253967732 
-0.059667095234 2.2318557197 0.51567014392 -0.057663297653 2.2177669525 0.65363621712 -0.055666759841 2.6269475016 0.60760851757 
-0.05379999876 0.36989998817 -0.43880000114 -0.051410912687 2.6253647441 0.65834743326 -0.048974392084 2.6295293448 0.63458859784 
-0.047456605976 0.94217774701 0.17514574787 -0.047200000286 1.0251999855 -0.049799999595 -0.046289271804 2.6578304611 0.61565142398 
-0.046514486617 2.0673673395 0.56485108374 -0.04470707108 2.6562506157 0.65738908309 -0.041289326138 2.5508586264 0.59391252044 
-0.043539634347 2.5465976715 0.6551492691 -0.040115205538 2.0713142084 0.5401511374 -0.03982424999 2.6873448068 0.63029669321 
-0.038543813298 2.6800724336 0.65165625905 -0.039675194909 2.0652380522 0.58995004289 -0.039387252927 2.7003501892 0.6421432972 
-0.037829772132 2.5489991666 0.62115463409 -0.036553237901 2.3666645449 0.46081336802 -0.037900000811 2.0770999908 0.49650001526 
-0.037749961019 0.30009999275 0.15247890949 -0.034742406694 2.3490185709 0.6052869555 -0.035499998927 2.0603000641 0.63410000801 
-0.47982215647 0.15877547794 0.067196533729 -0.032418642178 2.3328706384 0.73813544293 -0.027700001001 2.6653999329 0.62509999275 
-0.026465478496 2.6520814511 0.65002272585 -0.030173093298 2.5819280457 0.60001685323 -0.02237110883 0.30009999275 0.16172647476 
-0.021025861997 2.0763257945 0.52183407812 -0.021424138293 2.0655463361 0.60796539959 -0.020555248857 2.241343689 0.50533452034 
-0.019722988815 2.6653963329 0.63755206383 -0.017861810327 2.221972847 0.66422157288 -0.017000000179 0 0.76300001144 
-0.017000000179 0.30009999275 0.76300001144 -0.017000000179 0 -0.62300000191 -0.017000000179 0.30009999275 -0.62300000191 
-0.015747442072 2.493780674 0.65039670333 -0.015368129313 0.30009999275 0.11515735388 -0.013465356848 2.5019806093 0.61804470911 
-0.011791044298 1.4755759177 0.1795490126 -0.0026397524867 2.3600162983 0.55443185568 -0.0020440036483 2.4259308789 0.56869628666 
-0.25939039565 0.14446973774 0.60122759952 -0.0010490813991 2.3490613937 0.6430918932 -0.00050323755175 2.4261939338 0.64666824732 
-0.0008540067179 2.3860462622 0.56016404962 0.00086066350309 2.3774399162 0.64509421512 -0.0021912561471 2.0843569411 0.48691968829 
0.0046008043478 2.0807477816 0.51485553791 0.0035746806228 2.3550343485 0.59999230017 0.0030195075698 2.428833935 0.60595404801 
0.0037772072479 2.0682336807 0.61495842934 0.0083781638063 2.0653141895 0.6436028323 0.0045988314967 2.389410292 0.60007084753 
0.0092000000179 1.851499939 0.45089998245 0.01320643896 1.5801123941 0.28147428683 0.010400000215 1.6131000519 0.13559999466 
0.010400000215 1.3680000305 0.07689999938 0.017414275745 0.80935707709 0.25499355415 0.019242009521 2.2456023216 0.51595304012 
0.019106977741 1.6450270271 0.48908711318 0.021599067003 2.2289077759 0.6536367178 0.023690228344 1.9208110917 0.49610299456 
0.025747765808 2.3531028672 0.64079581483 0.032512348362 2.3638807474 0.56145229529 0.02692052722 2.0829831123 0.52228739262 
0.025292558365 0.90631312224 0.27071091706 0.14982516828 0.30009999275 0.52843081899 0.026449028198 2.0722132416 0.608785852 
0.031475664232 1.080514527 -0.13783528639 0.029499998689 1.7479999542 0.38340001106 0.030112511112 1.1915301296 0.45462922552 
0.030127384931 1.3798494907 0.088325089725 0.031282695072 1.1708868847 0.46850395573 0.03210090777 2.3719398321 0.48034630226 
0.031499999762 1.7093000412 0.22839999199 0.031499999762 1.5168000221 0.04280000031 0.032594358972 1.1664833119 0.44785394637 
0.036080247654 1.1794512073 0.42493092059 0.034544843939 1.1877365311 0.48094125687 0.033741693084 1.61238873 0.54343638989 
0.035529915901 1.2077363378 0.46625402838 0.035079885292 1.1986898435 0.42873906675 0.037188116594 2.3451233339 0.71818005408 
0.034148101682 1.9539016207 0.50354487351 0.033889927655 1.3372403791 0.046104281346 0.70113952693 0.30009999275 0.26912797141 
0.034806302953 1.2097357442 0.44372227112 0.039010646303 1.150693484 0.46821295037 -0.00054753952066 0.81846451759 -0.24937154284 
0.0358696944 1.1662197043 0.48125391928 0.041722231273 1.2026441864 0.48513202949 0.042308343065 1.223543027 0.4532916057 
0.039843406033 1.4547048317 0.16057458302 0.042233803155 2.0882141268 0.49731968564 0.043795881549 1.1588764328 0.42236307648 
0.041301352519 1.1481186854 0.4464782752 0.041428340355 1.483187249 0.22495131234 0.14129297968 0.8604928034 -0.15674840901 
0.04345292151 1.9708812714 0.50914647579 0.043700000644 2.0715000153 0.63410000801 0.044736837392 1.2257772745 0.33161152715 
0.050314750665 0.98110953391 0.17378694134 0.047372174785 1.1749757604 0.40436858027 0.045025420419 1.2442602317 0.28619389132 
0.04505534307 1.1530446987 0.48626993545 0.046733386611 1.1982113451 0.39990989382 0.04550255388 2.083259964 0.54086821079 
0.045623736311 1.2119311618 0.3186966014 0.045896175657 1.1874191994 0.49564148612 0.046198627353 2.0772891045 0.59011368752 
0.044555144482 1.5027661915 0.2069478232 0.044421804329 1.170319655 0.49493163565 0.047512783486 1.2455644312 0.33500724408 
0.044719127866 1.2203663477 0.41841389499 0.048488976478 1.2164141372 0.36359022162 0.04807895422 1.9322572708 0.50357074738 
0.049987262682 1.2088003786 0.29336736818 0.048698774317 2.2361151353 0.62598425018 0.048811805248 2.2461690903 0.54505991936 
0.050331403442 1.1990532722 0.3597110265 0.045697247813 1.2162417962 0.47753512274 0.053850594554 1.1430585626 0.42710328106 
0.048523833026 1.1413397799 0.47140499835 0.050804693569 1.1377800548 0.45130630614 0.051254738883 1.271961952 0.29536620858 
0.052139103413 0.30009999275 -0.014703713357 0.052328159085 2.0811967376 0.5654766568 0.05594645804 1.2027289167 0.49449165395 
0.0540314823 1.191009865 0.32714361325 0.057231683978 1.1599729007 0.40116818144 0.055626288786 1.1998381902 0.38393563304 
0.053876788077 1.2358218245 0.36758439127 0.057733965271 1.2645037222 0.3392177168 0.060175600208 1.2395033712 0.44540558904 
0.058536864178 1.5351441442 0.23814501107 0.058258270705 1.1342541771 0.46237391284 0.057927065464 1.1404513777 0.48066218676 
0.053639181273 1.2296321811 0.46551091928 0.058384807728 1.1824612909 0.35873646691 0.056966424365 1.1562305399 0.49561802836 
0.058085551858 1.9947590828 0.53042571545 0.053863535515 1.1526964175 0.29985336211 0.053342165855 1.2355083315 0.42537906041 
0.059281210566 1.1833379383 0.5012223099 0.059536582232 1.1872812271 0.30604536533 0.057644867216 1.2195821463 0.38543977442 
0.067045063613 1.1693428004 0.50015469882 0.060099896789 2.2428761482 0.58482031822 0.057187093953 1.4521162051 0.2950626455 
[...]
CELL_DATA 20253
FIELD FieldData 1
color 1 20253 double
3.7292547803 3.9531382025 3.4762762774 3.3844539354 3.7104045424 4.4318575332 4.0243955352 3.2223280446 3.7910245019 
3.1928216179 4.0850286956 3.2251291385 3.3742060963 3.1738018122 3.2581622052 3.0624121558 3.702374638 3.1414315202 
5.3016799777 3.8690140384 5.1107682638 3.2410747828 3.2409590711 3.4051074486 3.4975863942 4.0156050463 3.4457000951 
3.4544838991 3.6471183819 4.1855798349 3.3543109656 3.208758837 4.3452664818 3.4113926618 3.5841381218 3.2231527211 
3.9461387649 3.6048663882 3.2547558931 4.3273930913 3.1411874369 3.1884071353 3.2251750307 3.5419899598 3.3357719804 
3.8312137927 3.7427067318 3.1529327838 3.5972938072 4.2969837235 3.53084733 3.2805244936 3.1975282807 3.7955552822 
4.9895682564 3.6470960184 3.461166486 3.3290420235 3.7336963902 3.9496554194 3.7313058412 3.3175973523 3.5486694819 
3.6110685681 4.0538877983 3.3852723059 4.7531676623 4.8224694387 3.1610621623 4.1863612056 3.5007560514 3.1088987817 
3.4648346653 3.5519119413 4.6653574434 4.4061140493 3.2534606273 3.4842056166 3.3331671168 4.0404212091 3.4688496627 
3.3164090328 3.9016157097 4.3265563505 3.6941229195 3.8582484255 4.0829884308 4.4219948538 4.4047794957 3.0769796012 
4.0203604003 3.6342648583 3.9868592192 3.6783016737 3.8201966695 3.853179965 4.0635891904 3.8950251258 3.2836954034 
3.1504167315 3.1825306801 3.6569496008 3.5612732252 3.4328856953 3.1616556583 3.5575785834 3.5396757463 4.1974560543 
3.401042694 3.1163771692 3.4594508505 3.2440753823 3.5387547084 3.5036046843 4.1034454593 4.2311755083 3.3007067721 
3.3252263668 3.6245660145 3.2946261275 3.3373525929 4.1432686393 3.5836674116 5.0378227092 3.5748666204 3.2850895048 
3.9476951192 3.3811727626 3.3956613239 3.8760773858 4.0373935049 3.7664705202 4.1385299278 3.5279459528 3.7932765354 
3.8443043898 4.3026987868 4.0922342971 4.6231788607 3.2063692072 4.2202710964 3.3950416994 3.1465668217 5.0268420311 
3.4648708048 3.5906361977 4.1934820508 3.1470719395 4.7967095608 3.3313194838 4.1130570282 3.6913108737 3.9340215608 
4.3119694571 4.9863349021 3.481694017 4.1629494833 3.1565294556 3.2568963539 3.6177682536 3.6533855509 4.4202452659 
3.8692096044 3.2009532413 4.179207764 3.3438429574 4.1201068701 3.8832699301 3.5599133734 3.1842175673 4.3324492921 
3.5632925491 4.2712493867 3.1701195881 3.2205285929 3.3402438746 3.4619006252 3.6941187913 4.6452368852 3.3940309552 
3.3549786434 4.0033712785 3.7901624474 3.2675574927 3.6217625177 4.2496776985 3.1332040707 3.8464383337 4.3444883967 
4.0594468945 3.512842843 3.4499014429 3.7691976427 3.9624143389 3.5677653681 3.8483696564 4.2567016951 4.8102234103 
3.5490045962 3.2212735534 3.2866577032 3.5153638088 4.1685112212 4.472898925 4.0235813538 3.587025076 3.4090706035 
3.3073047402 3.8802114503 3.3464650555 3.6529340354 3.476344967 3.6981287077 4.335157089 3.421936109 4.2173241267 
3.6227307314 3.6431040452 3.4014448624 3.9148104526 3.5547125974 4.1901692622 3.2900953901 3.4473186339 3.934173013 
3.5405101862 4.7390221646 3.4392151562 3.9987399832 6.8453641211 3.1458298173 3.6102375789 3.6099367115 3.49013191 
4.1734909824 4.2422167428 3.6884347764 5.6134821054 3.9197907233 3.8480140517 3.3587356055 4.3697043389 4.0941028401 
4.2575390033 4.2653682883 4.1831497751 5.0671159878 3.6092002662 5.3043999627 3.7139889994 3.156491345 3.7733687636 
4.2893097056 4.0892713862 4.6128035032 3.9723930275 3.3526547772 3.508104138 3.8698139383 3.1912657196 3.439653382 
3.3333224354 3.6078913644 3.929556259 4.4458042323 4.2392853875 3.8310786892 4.421642366 3.7755256081 3.7800037882 
3.8446212917 3.6263539292 4.5053230873 3.2251039915 3.9000529508 3.3841572446 3.5796236243 4.6956325577 3.8654012721 
3.5998813277 3.9011115715 3.9883982587 4.5257002482 3.998739163 3.8124714801 3.514042305 4.1324227289 4.7373015696 
3.9468067572 6.4017372871 4.4440705908 4.27620178 3.1575228868 3.2634486997 4.3213721155 4.3090682917 3.1812182428 
5.1307320022 3.5088594792 3.2935903425 4.3868950964 4.5425763411 4.4828199408 3.7586595283 3.7953933612 3.2639505194 
3.156871062 4.4251877899 4.815395572 5.0646822829 3.5769803361 3.4714685271 3.8521252057 3.8227922064 3.4432833932 
4.4097737401 3.0405692238 5.1159463001 3.2231561162 3.6256725145 3.6671830707 3.8889225963 6.7105849587 4.2960864015 
3.2677512649 4.2451975402 3.9540257746 3.8433362006 4.1036692853 3.3315750397 3.850322006 4.0421826045 4.1046220176 
3.3065104222 3.9376954184 4.4195820301 4.1615766628 4.5861639694 5.1498085222 3.5661368078 3.1774148132 3.6567533653 
4.2262235069 4.0642685872 4.2013114953 3.8853594698 3.4116562325 3.5784596346 3.5111224207 4.0345667344 4.6944791522 
3.1118986039 3.680600614 4.9810427269 3.2733239281 3.546130711 4.454744029 4.2834434312 3.1737873221 4.4022228694 
3.2601754373 3.8531928447 4.8850309169 3.6252091491 3.7232785191 3.1989904651 3.0508416353 3.1997666089 3.2186017861 
3.6466394118 3.2983650603 3.2325082 3.6848670215 3.3424784293 4.7212123867 3.4808924624 3.7762686516 3.0927205616 
3.6894443202 3.9624499011 4.6860868977 3.4195311212 3.603591523 3.4847412876 3.0318694743 3.2841696719 3.5498602032 
3.1530548808 4.3288070376 3.2907801493 3.4707560612 4.0471923181 3.5384915189 3.7657740918 3.9249964873 3.7740807746 
4.0226985494 3.565409932 3.7340794993 3.3639466247 3.3692641725 3.7067230287 3.8805321314 3.9567714791 4.7819264162 
4.0250590004 5.3050051982 3.391433685 3.0733778492 4.3910256905 3.6072555722 3.6780995464 3.7322608181 4.0430051308 
3.263723522 3.9439223333 3.2531104415 5.3040995342 4.483486846 3.6110857142 3.2783425889 3.3651730528 3.4960164734 
5.8475827553 3.7925610873 3.2140082421 3.4790899222 3.3676861332 3.3567383766 3.2176399527 3.113233819 3.6739390173 
3.1980968654 3.665349494 3.2944890481 3.4121298056 3.222352111 3.8536490685 3.5763479 3.7707843206 3.9199407292 
3.2453653445 3.6508734617 3.6465674474 4.0250058146 3.9671067702 3.5207505973 3.2936513167 3.1427502748 3.5298324404 
3.182719187 3.5059566058 3.2277713887 3.4561317109 3.3424249205 3.3341660507 3.443979065 5.0733834883 4.6771029878 
3.8720673405 3.2410406484 3.5194320842 4.2189808827 3.4534853656 4.2289318183 3.2517686573 3.9411157301 3.854833855 
3.9715449406 3.1327228997 3.5221416806 3.4960236246 3.515404326 4.6755682501 3.9040801378 3.0759975079 3.1724513895 
3.4100975356 3.6463712619 3.5513027985 3.4232744098 3.7255837583 3.6410950407 3.2397807226 3.7141504693 3.4698535482 
3.4817436104 3.4688411888 3.5670835994 3.5546515378 4.2685974665 4.01402325 3.3322977155 3.3448828463 4.2912566423 
3.6395883398 4.068445703 3.3560460567 3.6215461029 3.665296869 3.9691568637 3.2258638506 4.2454624014 3.4682050202 
3.3739978222 3.6847360481 3.4140251351 3.3456114796 3.6000431385 4.8809851022 3.3732980317 3.4542746912 3.3754151261 
3.1401222378 3.761536659 3.3831327354 3.4793658644 3.2179903327 5.8063933708 6.5947432622 3.3772506527 3.4041151955 
3.7503686635 3.7851159966 4.2012820234 3.2836962465 3.7702433713 3.8899393911 3.0755816635 3.6051711522 4.067677726 
3.4537861159 3.964732454 4.1233500089 3.7038191005 4.1072837701 4.1418105708 3.2856737823 3.9010002678 4.0808578045 
3.3078595264 4.1718683499 5.5798789003 3.9732563159 3.1026375143 3.6262005541 3.2428774195 3.9237314664 3.8966988572 
3.3063052377 3.4927077654 4.0949291873 4.1931329252 3.0638801645 3.4943198934 4.3713819527 5.0086180531 3.9040648456 
3.5701347057 3.1431379729 5.0937379942 3.2872037052 3.3548483408 3.1388371178 3.2046243274 3.1032848271 3.3943582656 
6.3982192904 4.5158039014 3.5235293638 3.3708324348 3.0969598351 3.7005589439 4.2937184788 3.6627808702 3.658439274 
3.1881828811 4.044787751 3.4205453437 4.1787519853 4.0111358132 4.0654247104 3.5029913523 3.3576219647 3.229449753 
3.7573264926 3.7117238358 3.4709583595 3.670012569 3.4534060851 3.4668476921 3.2786782616 3.4759407628 3.4989190513 
4.3971476253 4.5819685894 3.4307671975 4.5494841993 3.9807642172 3.2945737288 3.3094035253 3.5251859881 3.6464212574 
4.0816924364 3.8347509117 3.0446145097 3.2252146886 3.6055548351 4.2607263308 3.6497032941 3.9795405018 4.7261568634 
3.3479524499 3.6463923392 3.3820671168 3.5237708493 3.9388774658 4.0059321738 3.6647208553 4.0315039138 3.766376036 
4.7698080399 3.7350880019 3.0876559867 3.8994901884 3.46472577 3.4062869494 3.3655147179 4.1707369456 4.5622996608 
3.2372566585 3.9381205007 3.3878401442 4.1110808185 3.233142954 3.9589440993 4.0527278372 3.9031722734 3.1538936854 
3.9962437943 3.4068722226 3.5755779019 3.7506974465 3.4377905384 4.0194879022 3.4245750509 3.3249669988 3.2426556481 
3.382314324 3.4897220607 3.5703492539 3.7650951645 3.9967829913 3.2481582779 3.1984444935 3.1203442185 4.4236514463 
3.5812312347 3.68370799 3.632923467 3.8295315764 3.2322255865 3.6270866182 3.4346547277 3.2928543933 3.8121761818 
5.7649246041 4.0098490844 3.913256337 3.8458955607 3.3599822562 3.1481178818 4.0230194103 3.8139847952 4.4323570897 
3.8636903263 3.4474704852 3.8600655853 3.8203018141 3.7042044662 3.623472371 3.5308890138 3.6298572178 3.6699095128 
3.5497295535 3.2062418572 4.2005887039 3.2635501504 5.4913152716 4.3959989078 5.0165134196 3.303644567 3.6079374402 
4.3622032511 5.2670675645 3.544684195 3.9043647166 3.8932997868 3.7166590272 4.1278289336 4.7402958852 3.5920825023 
3.2475997598 4.1942269037 3.3075835275 3.2843807853 3.3204884054 3.5589763619 4.0332798851 4.1852977893 3.9128930187 
3.7849367421 3.8682511343 3.6371698012 3.5610464282 3.3271234123 4.6626621907 4.5480377936 4.5709575221 4.0716068736 
3.6342791294 3.4074439776 3.9162421706 3.3699428281 3.8342622265 3.7889409532 3.8785608139 3.9883171895 3.2538083047 
3.6537452372 4.1899909757 3.707981029 3.9405125869 3.3997523349 3.7939603572 3.8415159166 4.0348096027 3.3352118597 
3.7077659664 3.6392187566 3.8123224631 3.7333510258 4.0882871885 4.566936771 4.0016943116 3.638445648 3.923390095 
4.0368345422 3.7911322906 3.620521087 3.060991106 4.3746899613 3.711778797 4.962055339 4.1675914536 3.2811903091 
3.3721478219 3.4857081021 4.0486341833 3.625275167 4.9609146386 4.4898750124 4.5606140737 3.9385575778 3.8016635373 
3.5990050111 4.3890281963 3.8523902718 4.2078815622 3.9454189966 3.5572431313 3.6732540901 3.8748781991 4.1168420828 
4.5059141356 4.4680116456 4.4850161425 3.2724559698 3.5895095109 3.5717992837 4.0209454302 4.0008092284 3.1672722699 
3.173103466 3.4634038231 5.1931216755 5.1879355344 4.7792617281 3.485063103 3.7965364767 3.5231022113 4.409352599 
3.3326175706 4.4733256619 3.2527674139 3.3101427561 3.4022720931 3.6426158936 4.3610169482 3.7931410802 3.7681407031 
5.5788922278 4.9857696633 4.6848005262 3.6431157983 3.8763291047 4.1442904181 4.2074003987 3.2122367454 3.7522452732 
3.9701525419 4.9484548722 4.483518884 5.083248041 4.8823072321 3.576500295 3.3220152788 3.4845468811 3.5330730398 
3.2864292634 3.6003982865 3.3323014698 3.2884396121 4.610435209 3.0900111728 3.9295978369 3.4156791491 3.4742460319 
3.4540293762 3.6693560791 4.9590820025 3.7921324495 4.7038948388 4.0697755254 5.2975679905 3.214276587 3.851618539 
3.9311077196 3.9481582285 3.5653897851 3.2011298947 4.5079701425 5.3429050452 5.06275762 4.328515725 5.0739194572 
3.8058130224 4.422701199 3.7409039744 4.8215606295 3.6921540594 5.5827346182 4.7291290379 4.5542678144 4.4900469637 
4.0458563431 4.3028391567 4.6600240265 4.7044385701 3.6194982531 4.5559901692 5.2171773098 3.4912027696 4.0251701145 
3.7523557689 3.7928126114 4.9890556946 3.0964124412 3.270669384 4.9805094781 4.9991630695 3.8610679927 3.9553335255 
4.4215189588 3.8869368945 5.433103036 6.9211292093 3.544051431 5.2244296941 4.6561335604 4.0167786192 4.7383966547 
4.4918896016 3.9787279547 3.4337271634 3.5333698168 3.9593001254 4.7811190241 3.8695345681 4.2539953843 3.3427364877 
3.8310054494 3.9792444114 4.54096473 3.4446657016 3.8575738023 4.6390457323 4.4123110133 4.3556315807 3.6077183464 
4.4332656338 3.7858468188 4.3924002634 4.2803921337 3.2503482774 3.4883641992 4.8454663218 3.5376401382 3.2989626208 
3.0886021069 4.3105397687 3.1713421057 4.3579763233 4.2021987538 3.541967713 6.2203067661 4.4653123745 3.351469748 
4.1985318397 3.3073395823 3.4997887291 3.3800127387 3.8603492927 3.8071975488 3.6140024842 3.5778996242 3.3747111677 
3.293083472 3.7592880176 3.6204101567 3.0616397911 3.3387735426 3.3786887482 3.574032044 3.5659970002 3.5225845679 
4.1928210172 3.9317399919 3.5101088624 3.6958494011 3.5324733588 3.5939035152 3.4803040635 4.8986899264 3.3505671446 
3.3587744918 3.7966813125 3.854331576 3.8460877498 3.5514589579 3.1854053219 3.8954621341 3.3898759964 3.4855068002 
4.1463236113 3.1748662095 3.7303142072 3.8317653624 3.2267587863 3.5502751849 3.6876086952 3.7491684356 3.8604720926 
3.5903130223 3.7982873271 3.8617549059 3.6856973025 3.9790410703 3.7202807505 3.718486766 3.3510894042 3.8391215721 
6.2253794062 3.4999227917 4.2449425485 3.3509618384 4.6162927754 3.4380722679 4.5186037382 3.387852195 4.5810051188 
3.8173735559 3.4603541215 3.820847972 7.5924285638 4.1758324529 3.7260507675 3.4939664804 3.5341180164 3.4187407129 
4.3948334476 3.2187526801 3.7150306717 4.3453610707 3.3192328724 4.3476425635 3.339802069 3.1669962833 3.3432778376 
3.5545008935 4.0193273071 3.7583417486 3.2912541623 4.1767269526 4.1285196046 3.3711059431 3.1399919993 3.8902010194 
3.2051884966 3.6989344651 3.4635732327 3.945708169 3.9273620386 3.2629211743 3.9846105019 3.2412595752 3.4190957138 
3.9220369466 3.413544524 3.896673302 4.6320532029 3.1033552853 4.145416426 4.5335428385 3.7441268576 3.2487046882 
3.5335992622 3.5359985039 3.6986825211 3.2613028093 4.175826946 3.6064788709 5.2835167817 4.002909766 3.935969086 
4.5689698554 4.0695519419 3.4387357988 3.6881658717 3.5848811226 3.4864687191 3.8752097623 3.5637784188 4.2362105011 
3.3210758131 4.7880462242 3.6122366393 3.2940780824 3.9407418323 3.7246381458 4.9651384278 4.5779799167 3.6114942113 
3.8106445605 3.9082299853 3.668786857 3.4152785567 3.7624798242 4.1535536205 3.8209870254 3.6996406061 3.6777595609 
3.3691584936 3.4411525863 4.9886000041 3.574534621 3.6570838027 3.0871261706 3.6539345295 3.6043758033 3.3200748517 
3.3911140354 4.3099059664 3.3764003696 4.3676848803 3.6839007517 4.2343791029 3.6247886483 3.3318886217 4.6558291724 
3.3353131482 3.1869534626 3.2894481106 4.7866359779 3.4414332075 3.4871620148 3.5859875327 3.3554886449 3.1910714711 
3.5930875942 4.4494667037 4.1611111531 6.8568280854 4.9836720659 3.952856325 4.0006580444 3.2398010194 3.9428612866 
3.440967732 3.8778710373 3.3596018699 3.8440837732 4.3783511299 5.0320847927 4.3550262299 3.464698421 3.3579964901 
3.6563624549 3.8516622598 3.3300094074 4.0449529938 3.4824344356 3.7333675764 3.8301982131 3.5926469401 3.1575016463 
3.2235012011 3.5587345804 3.5081414831 3.1033627407 5.1031525942 3.4171115405 3.56371115 3.4238456752 3.4591987689 
3.3351052366 3.7182003323 3.591004699 3.3136855391 3.6140768668 3.2265507333 3.1851293429 3.6391105525 3.8852286851 
3.8285878636 3.2572908367 3.5969277966 3.7597401963 3.7056659809 3.878718749 3.5266878288 3.7115534249 4.6073641693 
3.6247831092 3.7868804791 3.2580441151 3.5424325543 3.5614224637 3.7441134177 3.2146288101 3.1052387075 4.2018606794 
4.9514254038 3.160265327 4.9631008798 4.85813531 4.4454466609 3.1144090307 3.3361525728 3.430041001 3.6469173654 
3.1829817466 3.8273205448 3.7858020418 7.3953670029 3.5514058647 4.2112351931 4.1801955269 4.8736821628 3.7065451123 
4.1316067303 3.794714094 3.1278739851 3.3882487726 3.8145071368 3.2210048162 3.7362165884 3.3240335488 3.6994114325 
4.1783212428 5.147829878 4.1663198534 3.1676769188 3.1546863196 3.2041193827 3.6246317296 3.4857518606 6.4502847106 
3.8743833982 3.5985943225 4.1925922128 3.5950063199 3.7156243876 3.2990759844 3.8211812226 3.6360381176 3.5210250135 
3.5455438337 3.8441865734 4.0115807563 3.7179803561 3.7176871712 4.5821777568 3.7058010756 3.9438826599 3.4414318625 
3.7154338073 4.1036435403 3.6757101572 3.3736462322 3.6006178542 3.8103923021 3.6449088027 3.5751085604 3.6222358576 
3.295300503 3.6705271687 3.6667911717 3.4878980555 3.6596950271 4.1420737772 3.6951033894 3.7874609577 3.6513246386 
3.1587056653 4.6278018883 4.3810164576 3.8013632796 3.2986208021 3.4243300119 3.9007329797 4.0375089003 3.8987410633 
3.5222367256 4.4563143478 4.0409617477 3.4242002866 3.470736476 3.6208877799 3.6884227489 3.2744500321 4.0194364599 
3.955008773 3.6572798985 3.3649757551 3.7266637904 3.8480445396 3.6265027684 3.4179681197 4.1924954619 4.0499807874 
3.8163548992 3.2088380458 6.4420840239 4.0892795354 3.6515174749 4.7059738934 3.2699654923 4.0023842076 3.5250599235 
3.5185341525 3.571883836 3.7234373071 3.7024956358 3.6989707029 3.475630929 3.6036079986 4.4228902492 3.9043964324 
3.2378587749 3.2725736421 3.7292096752 3.6213970881 3.1497214886 3.7190092472 3.6067771208 3.7625007583 3.4023934225 
3.4406877822 3.3529448528 3.500139668 4.3614970435 3.4614760133 3.6398255403 3.6265593328 3.6749189026 4.0295559114 
3.4075424713 3.4802724686 3.3037259312 3.0680953676 3.8587533851 4.2338801246 3.8264504813 3.6340901106 3.9401803371 
4.2403620293 3.6556768768 3.5473898736 3.5151555695 3.3714418229 3.6943338648 3.7091483213 4.3181231006 3.6543430516 
3.8719558816 3.2032094175 3.1824866824 3.5414611886 3.1205427978 3.3102909702 3.6784830731 4.3473547908 3.4908335502 
3.4931873846 3.2105344408 3.5491100233 3.8161391309 3.3005472622 4.0973253863 3.479094594 3.455122987 3.4554124929 
3.7022623247 3.5762846093 3.1327267366 3.9103202477 4.2344999196 3.6609745784 3.3165070355 3.1906860553 3.6797725981 
3.3724182224 3.5042260452 5.1957421381 3.7473731793 4.370781091 3.4831180885 4.3385693428 3.5946492043 3.099285789 
3.964119471 4.5248832364 4.0187149019 3.2074042914 3.6285542468 3.3740174871 3.5512516425 3.5557330941 3.4772442804 
3.4644841399 3.3683711157 3.6249227843 3.3958230845 3.4884074023 3.840319709 3.7325768493 3.4708388913 4.0807477443 
6.0728450998 3.9931823565 3.5755162018 4.2562893968 4.9350662903 3.1325089096 3.4379010914 3.8536260933 3.5522440038 
3.3177041632 3.9677749996 3.6999006805 4.4741316233 4.4277644283 4.2419565295 4.0948924186 3.4688092546 3.9243900501 
4.0247409518 3.5183927026 4.1936636505 3.7028064036 4.2423155221 4.4324655167 4.8077609815 4.1420332768 3.8613406998 
3.2600733121 3.8867404001 3.9106667964 5.3188662244 4.1600907446 3.3476552735 3.6269511742 4.2694478737 4.5156584763 
3.7078537073 4.3272334766 3.7434875298 4.2125087203 4.1727493073 4.3639474867 4.1726059257 3.8950481194 3.993048595 
3.8334932791 3.6646859176 4.0339311951 4.3440869756 3.9773321062 3.4722186559 4.7696610913 3.8220924912 4.317626327 
3.8556956735 4.0020312034 4.5363287484 4.1687829798 3.2716054075 4.935314914 4.0601288325 3.6906637989 3.5334545779 
3.8840918896 3.4716421186 3.3841104455 3.5174562178 4.2397364847 4.3999025931 3.7588599903 4.7208640519 4.2482275869 
3.7306034675 4.0406033362 3.966211424 4.193914777 3.3605342502 3.3059053997 4.7294739365 4.4696984195 4.7915043915 
3.4257361292 3.7991475407 4.7901263395 3.5494277805 3.7034884449 3.4434906965 4.770197036 3.7859160553 4.4050856415 
4.0451167495 3.846797249 4.5453674746 4.4337954554 3.2189548064 3.5551659283 3.7733955272 4.0251941886 3.3235618558 
3.2545472452 3.1425416493 4.5290768528 3.5017373414 3.3179327915 3.5356435191 3.7894123867 3.4405330851 3.7586079496 
3.5063265913 3.8997521407 3.2773051735 3.5651667109 3.6497230775 3.3762423451 4.9750673509 3.4618131853 3.7528794325 
4.3148467872 5.024302518 4.5033174625 3.0443868186 3.7140743947 3.9670344433 4.4697690302 4.4854109841 3.7330766284 
3.7635338127 4.809531798 4.6258635812 3.8958961134 3.4222751863 3.783304916 4.3115009785 3.601475736 3.191438546 
3.2058440827 3.2076982975 3.3790245185 3.5694688412 3.5786301826 3.9902659416 4.7730368036 4.6392805263 4.615695113 
4.8916716235 3.7259893708 3.9185418114 5.4662456332 4.8145413132 4.0605809731 4.4380190472 4.079401827 3.3538044336 
4.6319134662 4.8355894977 3.1480964216 3.8964795395 3.6938964992 5.9250655923 3.9470167483 4.2096031538 4.0627887543 
4.4202008744 4.3921754805 3.0630840637 3.0706093326 3.5753266024 3.7310281951 4.7311938046 4.0195113421 3.4999967698 