# vtk DataFile Version 5.1
vtk output
ASCII
DATASET UNSTRUCTURED_GRID
POINTS 7686 double
0.018010435998 0.00075644373751 -0.018010435998 0.018010435998 2.1448717117 -0.019129140675 0.018010435998 2.2451134205 -0.030563919619 
0.018010435998 2.3220920563 -0.045840871334 0.018010435998 2.4180805206 -0.076911395788 0.018010435998 2.5304389954 -0.12761099339 
0.018010435998 2.5982951795 -0.16877423595 0.018010435998 2.678519249 -0.22857041359 0.018010435998 2.7282282829 -0.27393049002 
0.018010435998 1.7705120087 -0.30621528625 0.018010435998 2.7921912473 -0.3432031122 0.018010435998 2.8433941841 -0.41117991209 
0.018010435998 2.0915704727 -0.41836690903 0.018010435998 2.1589551926 -0.42178428173 0.018010435998 2.0137019115 -0.42568781056 
0.018484433631 2.227487551 -0.43482337312 0.018010435998 1.9422927856 -0.44353685379 0.018010435998 2.2970883013 -0.4587216795 
0.018010435998 1.8952171326 -0.46218745708 0.018415034891 2.8791810979 -0.46759779593 0.018010435998 1.8331869402 -0.49548388644 
0.018010435998 2.3644924164 -0.49368829727 0.018010435998 2.9106304169 -0.52763640881 0.018010435998 1.7874440945 -0.528025715 
0.018010435998 2.4255698655 -0.5388048626 0.018010435998 1.7434839249 -0.56745538712 0.018010435998 2.9395723744 -0.59408138554 
0.018010435998 2.4770886128 -0.59008194798 0.018010435998 1.6982658027 -0.62046627608 0.018010435998 2.5234920686 -0.65262318902 
0.018010435998 2.9597586632 -0.65281319618 0.018010435998 1.6628372192 -0.67535939217 0.018010435998 2.5523096085 -0.70554771423 
0.020460027945 2.9804111772 -0.73241042842 0.018010435998 1.6285374641 -0.75239613056 0.018010435998 2.5768078804 -0.76841423512 
0.018010435998 1.6113161917 -0.81356787315 0.018010435998 2.9952598572 -0.82842717171 0.018897486507 2.5925160234 -0.83343297694 
0.018010435998 1.6020043707 -0.87586972545 0.018010435998 2.5994400978 -0.90113296509 0.018010435998 2.9997308731 -0.91801037788 
0.018010435998 1.600295639 -0.93037885896 0.01970727641 1.6057016486 -0.99158738231 0.018010435998 2.5954526901 -0.98536605835 
0.018010435998 2.9952598572 -1.0075935841 0.018010435998 1.6184325218 -1.0514178276 0.018010435998 2.5793297814 -1.0595686125 
0.018010435998 1.6341341019 -1.0995573044 0.018010435998 2.5594894409 -1.1151884079 0.018010435998 2.9804345539 -1.1034937693 
0.018010435998 1.6635967296 -1.1619270646 0.018010435998 2.5241418173 -1.1823933884 0.018010435998 2.9559216499 -1.1937498331 
0.018010435998 1.6954911724 -1.2115681156 0.018010435998 2.4381666402 -1.2860268941 0.018010435998 2.920365715 -1.2881688118 
0.018010435998 1.7860606582 -1.3068474084 0.018010435998 2.3925348282 -1.323509407 0.018010435998 1.8285301351 -1.3376343479 
0.018010435998 2.8875358782 -1.3531315809 0.018010435998 2.3384448022 -1.357371025 0.018010435998 1.879813385 -1.3669126511 
0.018010435998 2.28149523 -1.3836809437 0.018010435998 2.0565777051 -1.4158357813 0.018010435998 2.1253205299 -1.4170837402 
0.018010435998 2.8456472619 -1.4215362544 0.018010435998 2.7941460551 -1.4904879742 0.018010435998 2.7442905426 -1.5464235306 
0.018010435998 2.6953426361 -1.5926037788 0.018010435998 2.6252164841 -1.6485274315 0.01806438568 2.5525753258 -1.6956293836 
0.018010435998 2.4905057907 -1.7288824081 0.018010435998 2.368474704 -1.7769560152 0.018010435998 2.2671826839 -1.8015654087 
0.018010435998 2.1896215439 -1.8135379791 0.018010435998 2.1224411011 -1.8174510002 0.018010435998 0.00059793561819 -1.8178936735 
0.018144820521 1.7675713406 -1.5019219437 0.018010435998 0.099435471535 -0.96939191737 0.018216701061 1.7556743267 -0.38314342253 
0.018010435998 0.26975540667 -1.7647004308 0.018328333597 1.7536481059 -1.5824639255 0.018368090352 1.4958165152 -0.80880525398 
0.0181586787 1.7172544088 -0.44988092484 0.018010435998 0.1523327726 -0.86230007038 0.018439631526 1.7258931593 -1.4051554891 
0.018440786051 0.11071701056 -0.74845958987 0.018483495508 0.10903703103 -1.1559364617 0.018010435998 0.10214522178 -1.6323358949 
0.018010435998 0.18940900828 -0.9418795135 0.018266853262 0.251167078 -0.12924934624 0.018495993678 1.3744155985 -0.90221234163 
0.018556048717 1.6185444043 -0.54295420617 0.018086487932 1.6802146932 -1.6835942945 0.018947439938 1.6089440333 -1.7010714288 
0.019078984574 1.4308346494 -0.87146064117 0.018010435998 0.25082614409 -0.92190292665 0.019219202544 0.12620979226 -0.25383230859 
0.019240929404 1.6660382887 -0.15917118118 0.019253593632 1.5529755803 -1.1984371364 0.019320020286 1.5011987667 -1.061457767 
0.019352910495 0.24111835669 -1.6927668924 0.019436202311 0.13006067036 -1.0477277482 0.018143819912 0.16653387395 -0.1725542159 
0.019468914361 1.5180131656 -0.71565165098 0.0195578421 0.11677780923 -1.5180914208 0.020652407559 0.28789105339 -0.89506092573 
0.019704223713 1.7258896907 -0.22232310315 0.019740723197 1.5474283861 -0.64170066596 0.018539193611 1.0255513707 -0.92809983852 
0.018440614152 0.18812405942 -1.6736373045 0.018010435998 1.4011746713 -0.92880120176 0.019895073856 1.7458534375 -0.27182193854 
0.019889245776 0.17364928679 -0.98837563024 0.025138141355 0.13876440335 -0.74345730584 0.02362867458 1.7073929475 -0.41448218176 
0.020025344629 1.6275793557 -1.3189059847 0.02625490795 1.6054238723 -1.6745607376 0.026655811071 0.20283533343 -0.19184749901 
0.020780858304 1.6800506835 -1.3779908458 0.023652421691 1.7333829201 -0.35686061699 0.021211908773 0.14995520071 -1.6086775998 
0.023375652225 1.7378050761 -1.5344440973 0.026348743249 0.14024699668 -1.1083141078 0.028173809035 0.27054880623 -0.16457491146 
0.024135200565 1.6578075219 -1.6591746948 0.022246781176 0.21568580551 -0.86734782497 0.02638354666 1.47101353 -0.7841914041 
0.022904722393 1.6474912459 -0.4784307553 0.023928680472 0.32925695898 -0.95157957614 0.025539932903 0.1743298308 -0.82050740447 
0.026968578031 1.4588508097 -1.0322577171 0.024469212779 0.24771561921 -0.9615977029 0.028782871693 1.4267987761 -0.83534669668 
0.024771119836 1.5918491218 -0.53604544919 0.028825573143 1.3231378601 -0.87307845616 0.026389626385 1.4103153281 -0.98248722749 
0.027995341604 0.197876351 -1.6367049068 0.02735937677 0.14206486875 -0.60912419562 0.02818598972 1.5094115719 -1.1738866991 
0.028583364321 1.7228490474 -1.4854637765 0.028488780284 1.3828737929 -0.86268986828 0.027172734349 0.84408732482 -0.9596984479 
0.028183113681 1.6808552096 -0.20706557673 0.02909905504 1.6902962759 -1.6159188021 0.029481916664 0.14634967541 -0.3148260711 
0.030380293617 1.5267169983 -0.61613248938 0.027588817794 1.4957410093 -0.70001583904 0.02839802526 1.7030716713 -1.4354979949 
0.032957542205 1.6350459259 -0.1851032668 0.028532955234 1.7074321006 -0.24349315653 0.032753186594 0.28976059078 -0.86555530972 
0.029495941742 0.14625803978 -1.5026595118 0.030943958536 0.24054804318 -1.6566004638 0.030299644627 0.1685342072 -0.24142764359 
0.031407883763 1.4741226196 -1.0929334641 0.02956014103 1.6046138619 -1.3330697565 0.024494590115 1.3526462801 -0.95540485305 
0.029771425261 0.16062031858 -1.0546313449 0.037542334438 0.33156777843 -0.97732440323 0.033579128533 1.717295873 -0.3109798561 
0.026637777451 1.562867843 -1.2670056853 0.027517672168 0.14687467011 -1.5551283861 0.040316526692 1.4588793118 -0.75030750765 
0.028191442711 1.6412559072 -1.3694155914 0.032983980835 1.3983065184 -1.6655834303 0.03565901717 1.6405987621 -1.6432774761 
0.036046919211 1.7046927388 -0.36768623038 0.03700352615 0.23983629503 -0.84590290256 0.037108695507 0.29864287786 -1.6591805942 
0.029297441043 0.39465754213 -0.16386843964 0.040962578528 1.6878174569 -1.5881412117 0.037108695507 1.5585197278 -0.54289167901 
0.037841426323 0.1841671798 -1.5971780848 0.035555645672 0.19750945327 -1.0175539583 0.03663401631 1.6713796193 -0.41816963834 
0.041293435908 0.179819661 -0.78156296119 0.03853272726 1.5998439288 -0.48676420217 0.036840304292 1.6702129212 -1.4171792909 
0.044604902114 0.16904170086 -1.1006802798 0.035780248513 1.7124419487 -1.5394728612 0.043304723333 1.444234408 -1.0570167876 
0.034058876757 1.5653097476 -0.17209261731 0.03971563636 0.20860528879 -0.82129028995 0.033868473324 0.22036871994 -0.99549491954 
0.040103028363 0.16267841615 -0.72313518496 0.040194311587 1.5786504094 -1.6551268877 0.043056353971 0.22238807456 -1.6269958246 
0.045013683042 0.24339798293 -0.1990460613 0.044067992263 1.6671981805 -0.2268315939 0.042573306321 1.4272718356 -0.80570039524 
0.049498487134 0.4577094016 -0.99072597796 0.044377345794 1.4147278866 -1.0203130941 0.043912197714 0.2631455075 -0.99042666633 
0.044842996449 1.3129037902 -0.9860705079 0.047055413033 0.29714114502 -0.1883902985 0.043695941567 1.6189912291 -1.3798935986 
0.046115856514 1.6925652533 -1.4706734176 0.046172208302 0.16939982644 -0.50662328282 0.047841282324 0.27047161888 -0.84349232162 
0.051556167514 1.6519303502 -1.6134665459 0.053804374714 1.6282553787 -0.20876058354 0.041329332488 1.4805536753 -0.67905529899 
0.040770499385 1.572504454 -1.3201007341 0.045658637097 1.3831776762 -0.83565570327 0.048090109854 0.17131772877 -1.4184972212 
0.053182823425 0.19207997375 -1.0570454027 0.041718678224 1.5287144047 -1.2572193094 0.055049474252 0.19277195815 -0.25896870245 
0.046565549483 1.4814452605 -1.1745456029 0.048725708419 0.17217566277 -0.31206591263 0.050723212543 1.6862843632 -0.36852597226 
0.062218301232 0.29169890942 -1.634858348 0.044681883431 1.6948872791 -0.27267116393 0.049870190904 1.513983641 -0.58718498586 
0.049825940197 1.6976575958 -1.5226031804 0.040797736268 1.3778676724 -0.99190527775 0.050577122997 0.17812632554 -1.5504134138 
0.050903175669 1.693732741 -0.34497568646 0.057869193821 0.23946758822 -0.82183044628 0.051028567187 0.24938993279 -1.6330310226 
0.055667831719 0.93771720781 -0.1960260018 0.05426937998 1.6847603078 -1.5645381378 0.060717745624 1.5825229929 -0.20052656038 
0.054789969727 1.6930871196 -0.30815114498 0.057512269071 0.33251560772 -0.83850121397 0.05949175198 0.30672645686 -0.99908089865 
[...]
CELL_DATA 29378
FIELD FieldData 1
color 1 29378 double
3.1538548072 3.3422949245 3.3022134642 3.5615836841 3.4364907053 5.7247969661 3.1156944526 3.2360291003 3.2209644557 
3.3055456371 3.4626441311 3.3112384729 3.6872559816 5.1120150779 3.0940152967 3.9899065864 4.224996081 3.3718096016 
3.42904252 3.6721570012 4.9360642913 3.3228865846 7.527513228 3.920391923 4.6306764586 3.2799844214 4.4390219951 
3.282000869 3.820438112 4.7225545167 3.3939111109 4.9147885636 3.7595193013 3.5096682078 3.0496432789 3.4230241881 
3.073476308 3.5938830941 3.3944404645 3.4873084148 3.556103597 3.2685712718 3.2512258229 3.2456669411 3.8103103131 
3.4733202955 4.0515579794 3.2057972161 5.2412193323 3.3728351706 3.3673457656 3.1516243903 3.361227901 5.7211432399 
3.143437597 4.8282161824 3.6053826777 3.2244343915 3.3210153488 4.0747805484 3.1793153209 3.7021547485 4.3153001783 
3.4973525076 4.2435349656 3.1927378866 3.4335301428 3.0784214604 4.0066404657 3.7930534589 3.24920313 3.7381122094 
4.1713538372 3.7334351704 4.777801041 3.1077342479 4.091454201 3.1829031995 3.8402254774 3.4209512803 4.2877326499 
3.8366374914 3.2835747622 3.151968712 3.1763498534 4.1620645128 4.766215458 3.3957550937 3.3026558958 3.3300989909 
4.508867584 4.1404829043 3.1458284514 4.7344683014 4.0468432545 3.0990805387 4.072188943 3.6520779379 3.6014486105 
3.6956209825 3.4293905855 3.2656863462 3.5441626554 4.1268128809 4.4668365654 3.1765585548 5.3041995185 3.972508257 
3.9151030229 4.2730357587 3.3559258821 3.7912088294 3.4536162468 3.8569695796 3.3279086707 4.1620105474 4.2315835494 
3.9420238534 5.4647969389 3.910978993 3.2065673134 3.6009260413 3.6467793647 3.3860506674 5.0310884506 3.3337466809 
4.9529708201 4.0127273689 3.1185466726 3.3475939486 3.3544516379 3.8162260786 4.1455083671 3.3909512649 3.6222055589 
3.0731743373 3.2321821011 3.7199703824 5.5260093371 3.8622587413 3.2544059935 3.935100849 6.0227987223 3.6275592073 
3.5064170485 4.6584020624 5.7495992317 5.3316788097 5.7557044425 3.235059346 3.590612181 3.418105035 3.4485861114 
3.9960661887 3.1315731966 3.7613043943 3.2409349614 3.4525255617 3.2542642758 3.6662004744 3.0927136344 5.7015563258 
4.2696873875 3.5026429399 3.4670849 3.5988973012 4.7870254248 3.8097919569 3.6776912856 3.1863721849 3.2604692952 
4.5428886405 3.370176059 5.1005052842 4.861791853 4.5066973971 5.1185932959 3.3575468314 3.0462137108 3.7765439868 
3.0699007993 3.7218825075 3.2583108802 3.3926988613 3.117662374 4.190918094 3.9381568133 3.2147391417 5.8247649802 
5.5086463966 3.8797563391 3.6123386531 3.2230175772 3.3148232269 3.5780043613 4.0788705953 3.2872567786 4.5223419308 
4.9316872416 5.2271986288 3.4063725673 4.0054349931 3.5237168476 4.0396118642 3.2508434143 3.5818717476 4.0153358712 
4.3135320776 3.2696771156 4.396749783 4.0624961586 3.7275478986 3.8022587496 4.3682357604 3.8430579089 4.4418474397 
5.7806270657 5.2821593843 4.7150884302 3.6593939699 3.9736534244 4.0286291141 4.7645101947 5.1574187959 3.9735889122 
6.0248283755 3.1935741107 3.7293353853 3.1620144266 4.8451944346 3.5118515486 3.7902589082 4.1304466713 3.6085994624 
5.0008086995 3.2207685426 4.8085777842 3.5280886936 3.9969244539 3.6224371399 3.49980487 3.2020185956 4.5579046292 
4.9746272048 3.2291563725 3.9081437547 4.8690285016 4.6739610257 3.9667153111 3.5727095985 3.3378594845 5.2380082157 
3.4070046228 3.1366935804 6.2902161892 5.1584012025 4.2124130158 3.3243464884 3.4322273095 3.1754107904 3.9877561502 
3.9100006478 4.3231007862 3.9384819859 4.7500211491 3.9510828288 3.4084429996 3.5272267402 4.9654863029 4.5214382177 
4.0144972364 3.394136897 3.6499535694 3.6536580392 3.5599500809 3.0822808637 4.5455787029 3.4870482389 3.7984966405 
4.3854466307 4.9600971518 4.2138335302 3.2437566987 3.1247951061 4.7895905862 4.3160632997 3.4573613949 3.4735150086 
5.3116066809 3.6223238741 3.1176053134 3.9528163369 3.4900885958 3.9011230025 3.3458262691 3.8289525801 4.6467398924 
3.5167969539 4.3323212825 3.9686175601 3.6484900493 3.5109442036 3.7645466838 4.7160974552 3.9848041047 4.6778000979 
3.8403432249 5.8797596576 3.0930115494 3.661292132 4.3688517896 3.2404023528 4.2113314051 3.3646166597 3.3421744644 
4.3244688419 4.8428219845 4.1747741717 3.6786720462 3.8907064662 3.6676905522 3.3939703904 3.8257484738 5.2555204788 
3.2729425111 3.5063760857 3.4305926348 3.2638422769 6.1797225723 3.5637893007 3.9128901396 3.2205707031 3.1536781852 
3.6854538211 5.2488068874 3.5684389607 4.6481033883 4.478370055 3.1349514594 4.3468042521 3.709850628 3.9154319456 
4.3137915922 3.7783318217 3.4408020497 4.5960968829 3.2679441558 4.2672646765 4.0969489615 3.4399941155 3.3963459436 
5.1373231102 4.8261359192 3.6436873927 4.8213472461 3.9767124178 5.8818500294 4.4936109815 4.6581629405 3.6586521057 
5.552570381 3.1747344955 3.3552344366 3.7624681276 4.0894404647 3.3635789307 3.576905324 4.2969557291 3.4560787294 
3.5911215895 3.5610651123 3.195408703 3.1688578416 4.4460584889 3.5394686778 3.8925290331 4.0251781723 5.3458014205 
4.1014654519 4.5100045181 3.7024180172 4.90991736 3.2694529977 3.6791491263 3.3158506923 3.5429109196 3.5885278877 
4.3666715416 4.2786097576 4.4298195354 4.5172185559 5.4707804504 5.3767000315 4.2322898442 4.1024832855 4.346116034 
3.4886434175 4.3084118216 3.178156267 3.5932729664 3.556338348 3.4438013224 4.2046775183 3.3154371975 4.1338955732 
3.0319258874 3.6915350845 3.580930734 3.8092406431 3.1213868012 4.0515154727 4.0441562216 3.2516278296 3.1586449353 
4.4275225044 4.8954096515 4.3876044473 4.7466233842 3.7109096421 4.4132134552 4.0905211592 3.7798406207 5.1510052824 
3.5401490141 4.4949044583 4.6124706217 5.7610231426 4.7990855967 3.5646112237 3.6718311621 3.2359833441 4.1643807886 
3.6545156194 3.261600102 4.1863433571 3.6212909738 5.6159437877 4.4662154524 3.7483644387 3.9226327667 5.2278166503 
3.6520042875 4.0187170262 3.1969902598 3.5552726014 3.9861455881 5.1050516316 3.1782441093 3.5693538702 3.2494052523 
5.2595287464 3.9068371644 4.1255204986 4.4014258718 3.2873575622 4.2726722835 3.4606658803 4.3275904742 3.156582924 
3.5945504568 3.6125997618 4.7277370793 3.6188370683 3.6520639806 3.3416547551 4.3559737006 3.4309589789 3.9434673751 
3.5901366234 3.3961056812 3.7387337937 3.4822876749 3.1393679423 3.5914834746 4.3087758545 3.215872188 4.0447388646 
4.3917691984 3.2972533126 4.3632382415 4.3180228531 4.2568958033 4.3786467103 3.5007998733 4.1879592769 3.4560520419 
3.4165440987 4.4588590048 3.5304609275 3.5645529589 3.715216608 4.2861561226 5.0499432078 4.1822418325 6.156639046 
4.5438174808 4.7102954126 3.8804839773 5.9293163044 4.3594069086 3.6605567512 4.5517373587 4.9718966889 4.0555345966 
3.3255653315 3.5206981531 3.3755593134 4.1525565707 5.2757479654 3.9060106848 3.9865047669 4.3078408207 3.4287725996 
5.9490920421 4.9443934072 3.4034361378 3.8824932673 3.3210272248 4.9934532418 3.9762198672 5.2739549616 4.1647348029 
3.6975394524 5.2245463451 4.0869239884 4.1830476184 5.1842789202 3.8253317912 6.0263884835 6.3642816384 3.2805780533 
5.6943732271 3.659515553 3.6331032478 5.0885602676 4.5179976724 3.8501016158 3.8454077383 4.8370854163 5.3167512106 
5.4736999524 5.3884795655 3.316269665 4.1255387293 3.6145500357 4.8216077492 4.3008773852 3.240228748 3.9350968948 
3.8055685351 5.543756541 4.706474877 4.4709746272 3.692917478 4.1580130361 3.8052444043 4.6420764736 5.2361209762 
4.3972283804 3.7958134298 3.7156095771 3.5532653082 4.1149537165 3.6993364015 3.5779816488 4.2980959602 4.0589801606 
4.5552559812 4.3873192498 4.6696018876 3.3218453319 3.6028154404 4.068755418 4.7394295898 3.583052596 4.0403107223 
5.3893688256 4.5918887426 3.7338730724 3.5360303161 4.9984135779 3.796966963 3.8018392901 3.4076520117 4.5169638693 
3.6626723996 4.126850565 4.8450642762 3.9771046264 4.0102161187 4.679076188 4.3125243376 5.7230871284 3.8575886718 
3.5787668456 4.0956920936 4.5792867764 4.4098518593 4.3292326389 4.1621045124 4.6730753168 4.4967450164 3.9151505137 
4.3332446435 4.3469999481 4.5948369651 3.9505941012 5.3578622273 3.4475037263 5.1312658265 4.5424619771 4.6156412922 
3.541628956 4.2806559175 4.8873011553 4.1353032092 3.7490974012 4.2838655311 4.9646898579 3.9261908838 3.5440203752 
4.0632168626 3.9119450304 3.4644134635 3.6830765723 4.131786311 3.883288683 4.4833994461 3.5890325233 3.3384775868 
3.316916405 3.2336265069 3.1769383076 4.1795653195 3.8463248897 3.6386939501 3.9456464286 3.7169760801 4.2864992641 
5.4288812592 4.0670681594 3.7053474274 3.5525188608 3.9153265148 3.50695754 4.9738815809 3.4725773376 3.6859468393 
3.2785504845 3.8451971965 3.0582352137 3.6736409037 4.2096033021 3.1573901813 3.5986748853 3.7530341671 3.6576805765 
3.2447344899 5.3048406951 3.7499390958 3.228280698 3.3376803854 3.4943674789 3.4655197227 3.5284960237 4.1870820393 
4.3198034396 3.5980240236 3.8066688045 4.3612939712 3.1684542912 3.8745094469 3.1584930052 3.2311221678 3.5547005745 
3.8960680265 3.3082984756 3.3697141875 3.8006536628 3.3954808116 4.4876164142 3.0777102786 3.1650256118 3.3244897648 
4.4740804813 4.2003516349 3.5696102168 5.23254572 5.126707508 5.6625208035 5.2723450137 4.3005628349 4.8509097344 
4.0214233566 4.6148139983 3.1815728932 3.3878413704 3.4154278283 3.4842533721 3.2994347488 3.5373152992 3.3359114116 
3.9309217223 3.31071278 3.7589276492 3.5074742214 3.9061845099 3.3846596413 3.8901930627 4.3569330129 4.1219135305 
3.6359610948 3.3914888175 3.7169054744 3.7833511747 3.4778974444 4.7112559502 4.1560161503 3.8877116379 3.44685943 
3.7325243218 3.7573394456 4.0500928349 5.4236514338 3.4288924052 3.6641551021 3.6036547423 3.6454977759 3.0821105416 
4.1726178431 3.5447577825 3.4930474711 4.132880197 3.4038242607 3.5088004155 4.1613033611 4.5715154297 4.3281239802 
5.0006300488 3.8090216774 4.8234337087 3.3502712148 3.4731894429 3.769409816 4.6353988104 3.5808966892 3.8182383988 
3.9215852549 3.6905464326 4.2103636892 4.4198618944 3.7279429889 3.4354978562 3.5111938228 3.5226343673 4.2422347275 
3.7538529432 3.3482087996 3.6647751221 4.2628333653 3.4589373471 3.4566236661 3.4093731106 4.1524271295 3.7115752791 
3.6709285218 4.9023666626 3.9206297489 4.6199944392 4.0228498327 3.5451828001 4.0111554563 3.3664091072 3.3835153453 
3.4308437103 3.4155811116 3.0859223461 4.31060246 3.7755571178 3.7910391478 6.7310502829 4.5965875171 5.1250955604 
4.8100445785 3.6730847715 3.251795368 3.4562971849 3.8147576099 3.8891071039 4.7431179748 4.2927476533 3.8278826208 
4.8375328497 5.0439914926 3.5668336444 3.2731947446 4.2789087189 3.2753421406 3.7022674435 5.9904293914 5.4559267322 
4.7118566958 3.9042134242 3.4117090325 3.4740792895 3.6254534312 3.3527333515 3.3688961774 4.0271951975 3.8935987265 
5.3392335115 3.7580655 3.9374453183 4.6047378695 3.6312294628 3.5443025581 4.9728835635 6.9286991806 5.0795337529 
5.0127929553 4.2782666325 3.4203737001 3.7152656889 3.6227816918 4.1222304182 3.6285472452 3.8107356463 3.4419685497 
4.1798394544 3.1514557532 3.6729241236 3.6275441907 7.0781697811 3.2342758727 3.4381521296 3.4286289275 4.0878472578 
3.6109767266 3.4355344872 4.2367464654 4.1861510734 3.7918454697 3.343140165 3.9049248948 3.4896580275 3.7302112856 
3.9084308458 4.0520269168 3.3835128574 3.905966322 4.1205492495 3.7710822662 3.547506503 3.1133369282 3.4399419482 
4.3374323012 4.4978589989 4.387099638 4.5310168049 5.1680739787 4.6387361734 3.1428047456 3.5640233198 3.2631103688 
4.6754300361 3.477994787 3.1554581348 3.8060152748 4.6246980636 4.0032861651 3.1223827747 3.3643925453 4.8771399571 
4.9717396695 5.0062709943 5.4573388761 3.139644061 3.1163353779 3.6670986193 5.2557398433 3.68750573 3.4359015634 
4.4010506138 3.3502303753 3.6804010348 3.181991716 3.314267784 3.9597791072 3.9755355455 4.5714891638 3.4745478569 
3.9410578455 3.2696147794 3.5779426322 3.3659346314 3.8163770503 3.8895477199 3.3145098909 4.5143039374 3.6527060774 
4.0317041744 3.4790461034 3.9640436209 4.7969444062 5.8981722425 4.5284170356 4.7817324768 5.753084655 3.523080029 
3.8799437118 4.9418090722 4.3103989009 3.6704733104 3.6518979003 5.3699374469 5.0076733982 4.5667736905 3.8076356622 
3.3007631622 4.3320887388 4.0038641621 4.5779099549 3.4595940684 3.4558287096 3.8568082871 3.8140359232 3.5834010307 
5.2918136424 4.5996617736 4.8160579482 4.0930237106 4.0634714811 3.8424441201 4.6288573964 4.1593144349 4.7434858567 
4.5516647439 4.2217213524 3.6698876307 4.7617880113 3.1746687371 5.3117268943 4.3759978459 3.3819264824 4.9322666235 
3.5510271786 4.1588175637 3.9939975854 3.2690996593 3.3291640378 4.4354626686 3.8691156717 4.4847787473 3.163227988 
3.1370795941 3.7307688985 3.5505745699 3.1287610929 4.1100960422 5.1144789264 4.0513877564 3.2499881469 3.8161874876 
3.5858761273 3.3193488231 4.0388878441 3.5541830361 3.8631503878 4.6386014952 3.9816859497 3.9232419292 4.1406696077 
3.4360353043 4.1356118153 6.4305685156 4.2762144827 3.9195851112 3.4235569817 3.541823497 3.7160852746 4.9240415864 
4.6205948133 5.4134704757 3.7867103079 3.0705299967 3.9255346374 4.4927624981 4.6410377005 4.0792736953 4.7897378503 
3.3261844577 3.4354054775 4.2869756855 3.6297636016 3.295535523 4.0322950472 3.2309673483 3.8516519517 3.8200645896 
3.594929752 4.7197117422 3.0772567812 5.0506490219 4.2448155711 3.3157437846 4.2030219305 3.9989302403 4.3784429368 
3.7163426811 3.7634183168 3.4348073329 4.3790301651 6.7840135171 3.9402541807 3.4571647605 3.7922300526 3.1609479372 
5.0112614329 4.1280283428 3.7085902376 5.0553781398 4.0521020316 4.6511497416 3.9766721531 3.9460395689 4.9779838661 
4.6240459387 3.7209699799 3.196304377 3.356524495 3.7894108724 3.5849701345 3.5347400462 3.6696601006 3.7864043733 
3.9728224303 3.9808065254 3.2606831624 3.8226026335 4.3800406401 3.3325570762 3.3028015409 3.0405742134 4.6985448964 
3.6136312432 4.5812065382 3.6808889398 3.3965184754 4.1470241332 3.4638486762 3.8569162556 3.5829567397 3.5151159005 
3.918835315 3.3647670376 3.557461783 3.7082128354 3.6529470481 4.8785473595 4.6175751035 3.656928151 5.2023047783 
5.1349664109 4.6433055755 3.8291062667 4.3989449734 3.6584847863 3.7890979138 4.3361441327 4.9977859012 4.8439787255 
4.6543614321 4.0579671487 4.927682425 3.7620190042 4.3728131752 3.5162820025 5.300581262 3.8918804849 3.7789777936 
3.4081404968 4.8996598799 4.0159956736 4.3831380906 6.0064941998 4.1274362178 3.676201256 3.6768505326 3.7611782351 
5.3285595092 4.902983123 4.6408400331 5.3973545036 5.6879917974 5.6859209878 4.640840464 4.9191150719 4.1591869183 
3.9062427872 6.6672777435 5.5865704739 3.9193293363 3.6916193703 4.6780806858 3.1790794663 4.3064210666 3.196833127 
3.4136192474 3.8378163504 3.5319059441 4.3659928531 3.2220448879 4.6890492571 3.5053621309 3.2797384775 4.034702503 
4.8835526 3.1877540767 5.0966616995 4.7231299671 3.1433710783 4.1951582472 4.8794128538 4.4650681662 4.3617457502 
4.1007999797 3.7152916493 4.9598856701 3.1347635181 3.9060343229 4.1369112185 4.0576447926 3.9002479179 3.7925728733 
3.3054363854 4.2379927819 3.3665905454 4.2539652519 3.9335964858 3.0779992725 3.5500784246 4.2352925589 3.2534413088 
4.0059679699 3.6506441163 3.9257803828 4.4410855136 3.8044902008 3.3357817487 3.1528896458 4.3927314858 3.6076728428 
4.3371243636 3.7787814983 3.5248856 3.6592821358 3.8941712948 4.1065069904 3.4519958186 4.2424051444 4.5585352343 
3.3337356532 3.7223321855 4.9434123069 3.9202953729 3.537755404 4.6134805744 4.2218734528 3.7117552994 4.4113474817 
4.8614569945 3.9698719694 3.8091377087 3.6592115066 3.596377424 3.4944569638 4.1563614557 3.8028228294 3.7819628915 
4.2385104944 3.9640896014 3.7615180228 3.3427183724 3.8349078136 4.4050134539 5.4248887583 4.3425416487 4.6759728958 
3.9365814158 4.0033639252 3.6486498375 4.9517146096 3.7981751899 3.3091366601 4.0334638412 6.6950827512 5.908429188 
4.1715184208 3.798315636 5.7143106263 3.8752305901 3.7253630712 3.6109093057 4.4390445149 5.474446245 3.0730445131 
4.9545108348 3.9659417894 4.9398866911 3.3298802767 6.7691954682 4.2611894542 3.557839183 3.1817828058 3.2615143239 
3.1718796557 4.7023764636 3.6294741404 3.2264279411 4.0984398773 4.3417218529 3.9225871337 3.4558584014 3.4004056369 
3.4157121277 4.0453032697 4.3514748234 3.8319460719 3.1881992948 4.6427099024 4.2750462569 3.7078878341 3.7696186512 
3.9735056819 3.2989103092 3.4195702137 4.3490218855 5.0916516027 3.7316088947 3.5079944804 3.6120440291 3.3105207496 
3.4400977622 3.3911632487 3.6796608874 3.6942999876 3.7738627889 3.5306068287 3.5514090217 3.566217337 3.7665720047 
4.0514738061 4.1036968166 3.5911461584 4.237413839 3.626772194 3.7203667962 4.3549595525 4.2885376547 4.6304143734 
3.5899417977 4.5741230445 4.2152970773 3.685239877 3.4436111061 3.7539526896 3.811797157 3.5412690951 3.4182529036 
4.7163426521 3.0782612483 5.4582589136 3.6095148858 4.2580170527 3.4764707093 4.6308965772 4.4069992141 3.2938244924 
6.0926976983 4.0204622297 4.2728004088 4.616736923 4.3161760628 4.1708534165 4.9872064545 3.9878531272 3.9707133106 
3.7286034569 4.8102401605 4.7929171738 5.2699464827 4.8789219864 4.5606182061 5.7930028635 4.3719394709 5.3705150054 
4.2888603781 4.7177213474 3.1187583332 3.3660042387 3.2800366778 3.4050976683 3.886263491 3.1729598847 3.822878634 
3.3206674841 4.1831320743 3.957470554 4.3938625899 3.6486710735 3.4149154881 5.0414484068 4.5047391606 4.3247860189 
3.3727539942 3.387786444 3.7428953848 3.7481978479 3.9340583434 4.0102531588 4.149018446 4.9430020186 5.2404004856 
3.296431478 5.5713829393 4.0668518718 4.3443692193 3.2304686043 3.5011377886 3.6885868375 3.4202485759 3.4790112409 
3.5476939516 4.0021526952 3.2155981384 3.4985169239 4.0987287806 4.0466258385 3.7894178113 4.2431262095 5.1668570501 
3.5314328972 4.4259660756 5.2548740499 4.8209882911 3.5318127493 4.435060735 3.2959755066 4.1103311352 3.2959085712 
3.3153455789 3.1848504496 3.5718474702 3.2354882159 3.6383967107 5.2465890104 3.9814623366 3.2218187652 4.270485412 
4.5645176105 5.6989940004 3.9756014462 5.1549710936 4.1006859037 3.3580762336 3.9845472615 4.0033553604 3.2938734898 
4.377555976 3.5678048773 5.6367697209 3.2953570199 4.1153528192 4.2574388611 3.2804256328 3.3666953366 4.2482993841 
3.869944925 3.8416901935 4.0357809037 3.650073514 4.4424903171 4.1086271414 4.3309100107 4.4027165264 5.1951698071 
5.1726297713 3.4163792887 3.6017611575 4.338382409 4.1904299957 3.5400503629 3.8418187241 3.6626573229 4.7965381839 
3.2560623427 3.1255256136 3.2233756547 3.1582943271 3.7565030515 5.302278059 5.0534122425 4.5763078291 5.5918502484 
3.4234651384 3.584487058 3.5651756625 3.6425212661 4.4658396361 3.4744948414 3.603708279 4.6323236416 3.8200344836 
4.6101329504 4.3654909873 5.0404609685 3.2454123582 3.7948795884 7.3564452539 3.5326135485 3.3411076368 3.3990170806 
3.1134955995 4.4267043004 3.8673600498 3.3716119673 4.479277504 3.7416191969 3.503003405 4.4040822885 3.3718579722 
4.3862922817 4.2777942411 3.2306364873 3.6404682738 4.1955769087 3.3006062049 3.7138325107 3.6010871085 3.4805773209 
4.5435894998 4.4641823633 3.6796644454 3.72200869 4.3133811348 3.4254664504 4.6099988617 4.7312085726 3.6342718433 
4.5591050398 6.4912767068 4.5437543777 3.8322653362 4.7303910084 3.6275337954 4.0094451499 3.1645609576 3.4559209484 
3.7192549246 3.4381497796 3.8798247451 3.7056690935 3.4095561435 4.0309502525 3.2999860647 4.0312696084 3.7584152328 
3.4471480785 3.3322176258 5.2144325558 4.0568961169 3.9607912081 3.0855412724 4.6447975601 3.6492257306 3.4644451158 
4.0203237052 3.6088592974 5.0256905813 3.9030887207 3.8121497641 4.2031793761 3.6752416743 3.5636433213 4.8184336391 
4.9002373346 4.6223017414 3.9709794643 3.7265024143 3.3280358063 4.3089862762 3.3755681366 4.4914095592 4.695610798 
3.4990766256 3.8809102943 3.8283992973 3.9418329623 3.99945865 4.3525766578 4.0447770202 3.6378986603 3.6601764953 
3.9436236053 5.1814951854 3.7479575618 3.7731552813 3.2031821378 3.7556671398 3.3639217753 4.2672920162 3.2309254556 
4.4334932423 4.184687256 3.1543644867 4.5646911901 3.3450435759 4.0266295426 4.3102949109 3.6466397775 3.3570038542 
3.3756141153 6.5111703962 3.5912492781 3.2611770258 3.1296467531 3.1669037984 3.6283712574 3.3442158005 3.5041201178 