# vtk DataFile Version 5.1
vtk output
ASCII
DATASET UNSTRUCTURED_GRID
POINTS 2999 double
-4.0224890852 0 0.56996461309 -4.0224890852 0 0.23499162157 -3.8782658753 0.8138111882 0.65622743296 
-3.8782658753 0.8138111882 0.14872880169 -3.6047647618 0.4493380013 0.11360747406 -3.9211922178 0.091581756331 0.51465246729 
-3.8766163108 0.79715375088 0.70917352094 -3.8766163108 0.79715375088 0.095782713718 -3.4450166911 0.11193597544 0.13278192727 
-3.8659572268 0.54845107251 0.56996526117 -3.8659572268 0.54845107251 0.23499097348 -3.8571725687 0.81794596038 0.65749945288 
-3.8571725687 0.81794596038 0.14745678177 -3.8569971003 0.80079654892 0.71029070357 -3.8557599857 0.80085315474 0.094651309401 
-3.8372089914 0.81885942037 0.14722728349 -3.837033523 0.80171000891 0.71052020185 -3.837033523 0.80171000891 0.094436032804 
-3.8338657979 0.54879143265 0.56997489465 -3.8338657979 0.54879143265 0.23498134001 -3.8285645221 0.5103371529 0.61582818023 
-3.8285645221 0.5103371529 0.18912805443 -3.8161458397 0.81674967468 0.65697277066 -3.8171428276 0.81654308432 0.14804721101 
-3.8047138668 0.79703192473 0.70865749411 -3.8171432046 0.79987502185 0.095099019839 -3.7983106038 0.81257142965 0.65555558071 
-3.7963858405 0.81176501774 0.14925333517 -3.7977422381 0.79532997451 0.096640622912 -3.792677996 1.0715872634e-15 0.79826950297 
-3.792677996 1.0715872634e-15 0.0066867316864 -3.7794007513 0.80422502875 0.65650507867 -3.7794119482 0.80531935792 0.15181984334 
-3.7792364797 0.78816994646 0.70592764201 -3.7826545467 0.79018401474 0.10072583755 -3.7621864707 0.79549318331 0.65057059415 
-3.6808373875 0.45567066144 0.12213077985 -3.7631721763 0.77919248848 0.70295756595 -3.7466077456 0.78380506338 0.64603783166 
-3.7466077456 0.78380506338 0.15891840299 -3.7464322772 0.76665565192 0.69882908235 -3.7484732292 0.76804888409 0.1056677414 
-3.7322501819 0.76887533014 0.64114012351 -3.732995545 0.76990086254 0.16348049547 -3.7316843676 0.75118884826 0.69375561256 
-3.7328200766 0.75275145108 0.11068924478 -3.7271241154 0.08917664 0.39150159392 -3.7265455421 0.089503157981 0.41617398958 
-3.7216366836 0.75427239718 0.63636116847 -3.7216366836 0.75427239718 0.16859506619 -3.7202275089 0.73475435034 0.68837890191 
-3.7214612152 0.73712298572 0.1158038155 -3.7217456268 0.08917664 0.3694784904 -3.7199978743 0.08917664 0.44124539265 
-3.7156853401 0.55004484886 0.57001037105 -3.7156853401 0.55004484886 0.2349458636 -3.7138897551 0.071149243503 0.39190183962 
-3.7137153072 9.0238927442e-15 0.39192335457 -3.7137201007 0.071149243503 0.41262198305 -3.7135542344 9.0238927442e-15 0.41159541415 
-3.7127687818 0.73724660506 0.63080111314 -3.7132041826 0.73808254632 0.17388213101 -3.71235702 0.71940767601 0.68336760394 
-3.7124631184 0.71971727745 0.1214877109 -3.7102438853 0.51159212105 0.61586362107 -3.7102438853 0.51159212105 0.18909261358 
-3.7086509227 0.071149243503 0.37168972087 -3.7080876926 9.0238927442e-15 0.37021126174 -3.7073582348 0.089680341629 0.34290566935 
-3.707711107 0.071149243503 0.43603778237 -3.7075492732 9.0238927442e-15 0.4359691909 -3.2021229214 0.59677388527 0.36605976399 
-3.7068346734 0.08917664 0.46361963803 -3.7065773505 0.71917965516 0.62491188611 -3.7065773505 0.71917965516 0.18004434855 
-3.7060341213 0.69999558411 0.67704101443 -3.7064018821 0.7020302437 0.12725309786 -3.7031919106 0.70044949681 0.61881668632 
-3.7031919106 0.70044949681 0.18613954834 -3.7030164422 0.68330008535 0.67160793701 -3.7030164422 0.68330008535 0.13334829765 
-3.69717265 0.071149243503 0.35058966792 -3.6963884451 0.00044942207793 0.35003943753 -3.6972305797 0.071149243503 0.45385213407 
-3.6961758296 9.0238927442e-15 0.45530128344 -3.6903294262 0.35860697884 0.79826950297 -3.6903294262 0.35860697884 0.0066867316864 
-3.6896209821 0.08917664 0.32404726394 -3.6885377972 0.08917664 0.48161932163 -3.6814107674 0.071149243503 0.33456754106 
-3.6813026275 9.0238927442e-15 0.33470610773 -3.6802922694 0.071149243503 0.47117130595 -3.680186413 9.0238927442e-15 0.4710309871 
-3.6661675976 0.08917664 0.31058541751 -3.6651324224 0.08917664 0.49477775983 -3.6617936088 0.07048093253 0.32310458316 
-3.6619705349 9.0238927442e-15 0.32333266413 -3.5064650282 0.11430974596 0.12497173124 -3.6607366079 0.071149243503 0.48224928382 
-3.6606706756 9.0238927442e-15 0.48208634855 -3.6422279881 0.08917664 0.30396026816 -3.6412281987 0.08917664 0.50097355865 
-3.6367428697 0.071149243503 0.31714643969 -3.6403535036 9.0238927442e-15 0.31735027496 -3.6389800977 0.071149243503 0.48788841111 
-3.6373059271 9.0238927442e-15 0.48770043141 -3.6335508608 0.17001158036 0.40075158139 -3.5577365534 0.12013209604 0.081919757201 
-3.6332432383 0.16915099196 0.40664105466 -3.6277748881 0.1708976 0.39827215987 -3.6273215344 0.1708976 0.40648773849 
-3.7512004535 0.66557579998 0.66600885858 -3.6244040874 0.1708976 0.40072902439 -3.6179246986 9.0238927442e-15 0.31716663014 
-3.6179031836 0.071149243503 0.31699218222 -3.6165297777 9.0238927442e-15 0.48753031837 -3.6165054091 0.071149243503 0.4877043906 
-3.615986238 0.089601661007 0.30432753893 -3.6146552932 0.08917664 0.50092032517 -3.5962126058 9.0238927442e-15 0.32279424478 
-3.5961466735 0.071149243503 0.32263130951 -3.5949127465 9.0238927442e-15 0.4815479292 -3.594844155 0.071149243503 0.481709763 
-3.5911409536 0.08917664 0.3102609165 -3.5914982894 0.08917664 0.49451175742 -3.5805464054 0.55147812585 0.5700509382 
-3.5805464054 0.55147812585 0.23490529646 -3.5754147931 9.0248015657e-15 0.33393507824 -3.5748872247 0.071149243503 0.33538540038 
-3.5755806539 9.0238927442e-15 0.4701744856 -3.575472514 0.071149243503 0.47031305227 -3.5685541645 0.08917664 0.32305598094 
-3.5672622993 0.08917664 0.48083332939 -3.5613069271 0.00080719419193 0.34898679831 -3.5605688851 0.071149243503 0.34947116995 
-3.5598509503 9.0238927442e-15 0.45418506895 -3.5611043938 0.069975724074 0.45570360165 -3.5495701858 0.08917664 0.34207415675 
-3.5493340082 9.0238927442e-15 0.36891140243 -3.5491721744 0.071149243503 0.36884281096 -3.549057325 0.08917664 0.46232777286 
-3.5487955888 9.0238927442e-15 0.43466933159 -3.5486326535 0.071149243503 0.43473526388 -3.5433386331 9.0238927442e-15 0.39211441738 
-3.543160282 0.071149243503 0.39261263728 -3.5431679742 9.0238927442e-15 0.41295723876 -3.5435183692 0.069918480711 0.41499165351 
-3.536931039 0.08917664 0.36355763739 -3.5359726147 0.08917664 0.43862349123 -3.5328412098 0.74119125106 0.40247811733 
-3.5299616122 0.08917664 0.38865394922 -3.5297490685 0.08917664 0.41461221456 -3.5081546842 0.36058504632 0.79826950297 
-3.5081546842 0.36058504632 0.0066867316864 -3.4642366703 9.3622887221e-15 0.79826950297 -3.4642366703 9.3622887221e-15 0.0066867316864 
-3.41396581 0.59083239152 0.570915 -3.41396581 0.59083239152 0.23404123465 -3.3926701429 0.066377316534 0.79826950297 
-3.3926701429 0.066377316534 0.0066867316864 -3.3495305458 1.0421014265 0.40247811733 -3.3443354434 0.36091613714 0.72218528931 
-3.3437932328 0.34165344531 0.72544257272 -3.3421711272 0.36253210637 0.084069709939 -3.3410192707 0.3388581592 0.080291788063 
-3.3397820249 0.36390227131 0.73193278199 -3.3395648669 0.38919578357 0.71481995474 -3.3387317564 0.34231624869 0.73537750992 
-3.3376335267 0.3658433451 0.074374097903 -3.3367356524 0.38961426832 0.091525470314 -3.3364086179 0.34066796589 0.070356575384 
-3.3358820306 0.31350296522 0.72689912144 -3.3349542141 0.39100559026 0.72475516742 -3.3330952708 0.31165488997 0.079013723122 
-3.3331172742 0.38850043068 0.080597197411 -3.3312713779 0.31531277191 0.73683433412 -3.3297594467 0.31829534181 0.069366852686 
-3.3287642718 0.41126085495 0.70578831042 -3.3268944683 0.40971931147 0.099754838607 -3.3263464053 0.35481510217 0.67862080398 
-3.3258818852 0.35516822535 0.12661532659 -3.3257133858 0.33698894554 0.68157426513 -3.3253371827 0.33703374925 0.12356471629 
-3.3241536191 0.41307066165 0.71572352309 -3.3233042431 0.37007698747 0.67442890426 -3.3229434971 0.36990949828 0.13066423253 
-3.3241215308 0.29297333155 0.72518109957 -3.3237192432 0.40859661185 0.088619296524 -3.3190405574 0.29004545751 0.081599727939 
-3.3211574908 0.32175360504 0.68243363512 -3.3205508424 0.32073360153 0.12281667357 -3.3180842494 0.29243840426 0.73488137276 
-3.3165709604 0.29411360512 0.071082292769 -3.3162420319 0.38450472922 0.66852336107 -3.315926597 0.38424467162 0.13653188574 
-3.3128396944 0.42910150297 0.69514829449 -3.3124112899 0.30577202533 0.681087637 -3.312120433 0.30601711683 0.12404822222 
-3.31009584 0.42790520907 0.11086336788 -3.3084214669 0.36098019339 0.71791151725 -3.3043187413 0.43334023068 0.70282639248 
-3.3080229721 0.36056683978 0.08715435078 -3.3071419092 0.34253848216 0.72067706816 -3.307223904 0.34414370411 0.084533523629 
-3.306755253 0.42892610207 0.10019504422 -3.3058293898 0.39617023702 0.66156614805 -3.3055807624 0.39583533351 0.14344446127 
-3.3073912423 0.27448661682 0.72078459874 -3.3051909644 0.37718694233 0.71346009692 -3.3048302184 0.37701945314 0.09163303986 
-3.3032338994 0.27366311508 0.085950932016 -3.3027828594 0.32769349559 0.72135833095 -3.3024375637 0.3278435564 0.083785480907 
-3.3008370696 0.29356377963 0.67794023122 -3.3003203473 0.29369743085 0.12728014575 -3.3008775195 0.27428910503 0.73020230498 
-3.2981808227 0.27522835397 0.076176485182 -3.2981287532 0.39161468409 0.70755455374 -3.2984973066 0.38995727281 0.096928730208 
-3.2942980112 0.31288198019 0.72011882966 -3.2940071543 0.31312707169 0.085017029555 -3.2938608513 0.44089039566 0.68419327265 
-3.2927759212 0.40427852578 0.65403138776 -3.2930221869 0.40363621467 0.15069355801 -3.2916779457 0.44008448627 0.12162918199 
-3.2900119703 0.34618692807 0.66333073016 -3.2894704431 0.34405057177 0.14033243582 -3.2888402548 0.35407585429 0.66134991648 
-3.2836464917 0.44455929721 0.69118930833 -3.2892774875 0.33958280136 0.6641928906 -3.2877161111 0.40328019188 0.70059734072 
-3.2874735568 0.35686794927 0.14474917461 -3.2874674837 0.40294528837 0.10441326861 -3.2834173657 0.44206363499 0.11341864534 
[...]
CELL_DATA 12794
FIELD FieldData 1
color 1 12794 double
3.6120244807 3.942781708 3.5661221777 3.4139254323 3.1534690199 4.2028453212 3.6682997102 3.2210978785 3.3981512824 
3.6621008859 4.4010772028 3.5479535746 3.1809279315 3.1957984987 3.1797917204 3.2976155514 3.5129880618 3.1999606859 
3.2601992316 3.1708427406 5.1363365935 3.2420174259 4.3301106931 3.2112813826 4.6289979499 3.8325761 3.4304042505 
5.5548191612 4.4648445138 5.3989300154 3.7883005058 3.2920227601 4.5190554739 3.7835816527 4.8697454676 3.7101087406 
3.3365425617 4.724225579 3.608547073 3.7460797682 3.2995268493 5.7431448697 3.5472929634 3.5299931399 5.908023739 
5.3020619517 3.6478323687 3.2996925514 3.2825683712 4.5903704213 3.3977315289 4.1278044537 4.3945680016 3.2821914467 
5.5114520749 3.4376699828 4.9346043559 3.9508579611 4.0569498522 4.6604016071 3.4484350446 4.6789277208 3.0595259505 
5.0139826609 6.0117340207 3.8104833415 4.802485395 4.6176268269 3.3973948155 3.1639888074 4.9358168654 4.3102059541 
6.4293852841 4.6858887541 4.6380162552 3.7136400683 3.7748543804 3.1663365322 5.0296756583 4.2149347084 3.9602471305 
3.7553677611 6.8148211024 3.615235118 3.469743855 3.1630229626 3.4109119909 3.0362266373 3.4745595571 3.0466478874 
3.327410321 3.6455904106 3.2686008217 3.1829271836 3.5178982217 3.7069749739 3.3826896371 3.9070850448 5.2217027011 
3.5510628918 5.1077081971 3.2333282523 4.6787282082 3.7628548983 3.234415157 3.3714312542 3.6571920999 3.3148107315 
4.2360674289 3.256321193 3.2241221739 4.3746441802 4.1782728015 4.5037742156 3.8078819611 3.9893315235 3.9469089357 
3.1434510274 3.3476466781 3.373808236 3.408405877 4.6840809421 4.2637155602 3.0461623257 3.6202413047 3.8700658848 
3.4408636513 3.5321779674 3.5505856703 3.6054014797 3.5117108345 3.3352696931 3.2882500832 4.2968836791 3.7729116683 
3.8001691839 3.8237359233 3.9343065361 3.5973560373 4.0565220811 3.4896366828 3.0993542868 3.3664491291 3.3094659289 
3.1719208866 3.4075851927 4.7043788393 4.9843436424 3.2934470028 3.1217710439 5.2635429091 5.1378170219 7.0351126623 
3.5483951666 3.038639271 3.1977577721 3.2421242192 4.4275829127 3.0617688073 4.0676983152 4.4665195296 3.4853187075 
3.2195026063 3.3254463182 3.3812924533 3.8913288702 7.1813789106 3.4926405346 3.272733408 3.2266669842 3.284631633 
3.3552912913 3.1492967411 3.1465611907 3.4586973882 3.3290366589 3.4023108464 3.7832435025 3.459061923 3.4238805131 
3.553071847 3.2810085851 3.0849463801 3.2817421756 3.540251192 3.803546914 3.297990975 3.6514335238 3.727361814 
3.0901089674 3.5549560813 4.3463751475 3.0720278392 3.3505112585 3.4823915381 3.4328569339 3.5935732186 3.1179117888 
3.4362817868 3.4573025466 3.1446271991 3.7001191164 3.2127729994 3.7082102606 3.5874145494 3.3464824987 3.6617086947 
3.391341396 3.1050050122 3.8584254446 3.3830492726 3.4273458009 3.1924795333 3.3797000829 3.300635656 4.4909663575 
3.1119979402 7.1301608335 3.0542396332 3.1613904516 3.9913229385 3.6966227035 3.6130942098 3.2636214112 3.1357005465 
3.3900451815 3.2915737057 4.7811859407 3.2849861909 3.6771049289 3.0825777791 3.6047241041 3.1868085867 3.1506891205 
3.6705547113 3.5262388526 3.2157789886 3.2443886666 3.2911220577 4.9928432862 3.0237415944 3.805118058 4.2146249104 
3.2621653651 3.53948359 4.9604019662 4.9304384225 3.258841537 3.4090189259 3.9074236443 5.4695195021 4.347611588 
4.769229448 3.5300514407 3.2724298928 3.3539926364 3.3131363392 3.0849224516 3.1223977217 3.5406838171 3.4017706324 
3.8195174155 4.8983218197 3.6571226831 3.4784388723 3.1978009043 3.3871842846 3.1788379837 3.6115267056 3.2738938867 
3.4125102281 6.7814170031 3.3766188189 3.120010039 3.1737050334 3.304472383 3.2461479631 3.1809886667 3.3715469219 
3.1625806651 3.3198800622 3.1973947823 4.7771767072 3.8181778022 3.2099840623 3.3660095764 3.6983999446 3.3096599729 
3.1847220503 3.381028491 4.8134177706 4.3774623942 3.4310833429 5.2380764551 3.8921318965 4.3949659398 4.2011587966 
3.1334636894 3.0803600967 3.1201943832 3.1757297384 3.4345756615 3.1651359299 3.1768896071 3.5927855694 3.7442544549 
3.5842631879 3.3298001853 3.207971655 4.4001122617 3.1574305879 3.1837994183 3.4329019948 3.9417404187 3.2426866677 
3.5921731033 3.4219224789 3.1773545587 3.7592563065 3.4034703724 3.3354414379 3.3041117075 3.3913491177 3.2187242217 
3.6906048424 3.2527518783 3.0917801437 5.3590682255 4.6707182195 3.443061021 3.4820318833 3.3327320673 6.760473972 
3.7031378829 4.832774548 5.039721104 5.1437241788 3.4766997787 3.706748324 3.4475853045 3.6619404882 3.4664738826 
7.1750585069 3.1566670567 3.2825754104 3.3245943924 3.1992302679 3.1310588937 6.4618513572 5.4711979359 3.2404569188 
3.803343154 3.9928654141 3.4322618621 4.5443011076 3.6254798298 5.5000386798 5.3035437953 3.9197681377 3.3822630521 
3.2367859382 3.4182068037 3.1677147839 3.8026296245 3.4676245886 3.2093893706 3.5454791224 3.3552970064 3.3680534001 
3.4384398916 3.363127691 4.2667047465 3.298528232 3.1902286766 5.6568569926 3.4866052237 3.7131304397 5.0357556535 
3.1913810129 4.6453047757 3.2232687203 4.5979031977 7.1703863151 4.6922639002 3.3230352486 3.3154544926 3.1667391389 
4.6391816828 3.9562673707 4.280058777 3.7146679526 3.4049534987 3.0819692122 3.3930610073 5.1165940097 5.272112719 
4.2348365951 3.4748728263 3.4709121085 3.0598214533 4.9262447579 3.3812992203 3.6684441611 4.4442127497 3.1521380576 
3.4619036918 3.3738216468 4.0545806331 3.7443457362 3.0423071046 3.6180556345 3.0325070212 3.2111715083 3.2778998697 
4.9997350503 3.2557627727 3.3027476117 3.2109969553 3.2685326423 3.2304578415 3.5053162982 3.0520474324 3.5901432564 
3.1777466247 5.2665165963 4.2620699769 3.5126110891 5.6527629059 5.4477796584 5.9856752891 4.7864227015 3.2094024845 
4.9754505058 4.826456406 3.3382795642 3.55571289 3.7164683371 3.2391562307 3.2104512004 4.400957293 4.205831939 
3.8691178682 3.234134805 3.1680146171 4.9785799288 4.7102069488 3.1120250284 4.600750659 3.7688457711 3.0630563744 
5.5051667306 3.3570216291 4.868907109 3.1355699147 3.3065942576 3.2251318897 5.145501553 3.973086227 3.1710087082 
5.2424565249 3.1701033685 3.2706590707 4.7330191162 3.9630354 4.1517809225 3.9836123009 3.5607273902 3.3811057512 
3.2312413851 3.5961320641 5.2149157482 3.6057938411 4.5483473708 3.3799883047 3.1227585351 6.2624098833 4.7676536123 
6.7437310235 3.4445891888 4.4014149385 5.4165533613 3.171415079 3.7959560771 4.2071961836 3.134644026 5.4615001431 
3.4430778041 3.6268039731 3.2578223916 3.4137463679 3.9332925231 3.6193058094 3.2849275313 3.5735225425 3.0230125432 
6.4256500609 3.4717344927 4.4893277436 3.7802354003 3.2351119404 3.7835873016 4.1286488675 3.0756710923 3.8359435909 
4.7242817187 3.3557774389 3.8583762093 3.3076986761 3.1742953581 3.5725558194 3.1908122032 3.7584743638 3.3611813926 
3.5109039301 3.0879021035 3.1182318476 3.5390855931 3.3387285602 3.2320642426 3.1753783509 3.4510212228 3.5825307119 
4.029717209 3.5826004199 3.1912469344 3.9736789508 4.8123285377 4.2934426169 3.2312913244 3.1103226704 3.4282039646 
3.3109185818 3.9678578648 3.4728132865 4.9658657805 3.5692448824 3.7248515131 3.1843582147 3.521185663 3.2769239965 
3.3416252977 3.3500220645 3.0752103954 3.1245975306 4.2103223863 3.4968760284 3.4431595389 3.3585542559 3.2480629271 
3.2038276853 3.5657079218 3.1702019337 3.6376315487 3.1204843217 3.1245373906 3.2820837293 3.2463159206 3.3043243483 
3.3808858378 4.4211360214 3.8006512082 3.4771142373 5.5183513259 3.5285327919 7.372992289 4.0928993619 3.5098642015 
3.4074210577 3.1386149287 3.3198613534 3.1169627696 4.2735938722 3.3757023714 4.733273123 3.0878994732 7.2402723685 
4.3613005821 3.1850904345 4.9063702613 3.1672551946 3.401860467 3.4736029257 4.752398794 3.1582189722 4.5261730922 
5.2173836194 3.1567227452 5.9648509821 4.8169049139 3.3481117298 4.2222032514 3.1916847985 3.2187142716 3.4208324669 
3.2882955026 3.3138422732 4.8815578376 3.2006610346 4.410067963 4.2728940556 3.548210924 4.3888875464 3.9054675981 
4.0503127094 3.8900633192 4.459794066 4.4227018652 3.5035483188 3.1849204484 3.1534165045 4.0166598488 3.1863033011 
5.2621479866 3.6486670683 3.3498487501 4.4031664174 5.0035843183 3.4455758945 3.2350003596 3.118510077 4.3135406898 
3.2982182681 3.1526579999 3.1448412444 3.2629881945 4.6937655123 5.6633771431 3.118634791 3.4364181729 3.606020196 
3.4728632823 3.6469548936 3.735421061 4.1585242665 4.8068912848 4.1778529603 3.6361952325 3.6451789128 3.9308766754 
3.9521519438 3.6952339677 4.7724214734 5.0050993442 3.3246996889 4.7672191779 5.2983772905 3.611850357 3.4637493274 
3.6436686252 3.9726022421 5.0436951599 7.0744377567 5.1637039766 3.4677737114 4.8013424981 3.813718397 4.8585866786 
3.3211867522 3.1608297468 4.7697672624 4.6513543943 4.9678465714 4.4370680929 3.2858879773 3.368648129 3.8575352312 
3.2088098051 5.3435902664 3.2919401494 3.9775711754 4.8732735524 4.595258742 7.165812693 4.0610675143 3.7566649012 
3.1553548853 3.4271462698 3.2283824232 3.5557503874 3.8969452091 3.7176736801 3.9252760493 3.2088966197 4.9482938864 
3.2122364579 3.2856216519 3.1072969268 3.1199827415 4.5143822689 3.3998672759 3.1783371485 3.1382758886 3.1331296568 
3.698294747 3.3662512094 3.2776422451 4.0299858786 3.0732800511 3.1831624762 3.1791932028 3.2153133712 3.2874813573 
3.1993935757 3.2075731285 3.0385093151 4.3516416724 3.3658440833 3.4985856488 3.2481803762 3.0488894132 3.5789770428 
3.3508258151 3.3316807088 3.9892845747 3.8377717391 3.1375053518 3.2790845596 3.465465048 3.5934089927 3.0309298641 
3.2254080578 3.4459758006 3.3505795049 3.8436661521 3.4158957699 3.5113154211 3.2169927096 3.5242444938 3.1564350919 
3.3400925726 3.2106003686 3.626653229 3.1500125344 3.5364458357 3.5676603005 3.4043425078 3.6009630679 3.6203762025 
3.5375981815 3.1885180377 4.7510271778 4.3173968891 3.8209325657 3.7437778492 3.5756360229 4.9297744906 3.2832117118 
3.2740283247 3.4470833495 3.5816722297 3.3678381919 3.3900605131 3.2545801046 3.5418657991 3.0547151665 5.0259203868 
3.6773837426 3.1387947671 4.9991144113 3.1881072848 4.7444784771 3.8303148698 4.0137868077 5.626356526 4.2140113193 
5.3771630709 3.1757853004 3.0735039845 7.2374121195 4.0807514099 5.4489761056 3.7791937504 5.0659178714 3.2610534931 
3.236411657 3.3441827434 3.3058856131 5.1783317712 7.2374121195 3.5259723916 3.7631127042 3.5797021992 3.8484705686 
3.678130813 3.5669772731 5.5251943763 3.3443746631 3.0300477271 5.2292578683 3.223491049 3.2965686329 3.6137170385 
3.6662250813 3.4508504005 5.1571050104 3.1000690531 4.8270406105 3.8940871085 7.0535054524 3.8547537234 4.62483418 
7.3185751977 3.435976187 7.2765563661 3.440933855 3.3419625699 3.5896862066 5.3439809503 5.174185163 3.4635771433 
3.1665526959 4.0082039511 4.4785965744 5.0195570739 3.4982913473 4.9216690258 3.6848592435 4.7139965663 3.2033550351 
4.7702645029 3.343005991 5.1527098172 7.0220216325 7.2652733342 5.120138767 4.3659100706 5.6384177743 7.0711847299 
3.4650894799 4.3583862286 5.4997830227 6.9569430158 5.5940293422 7.0567872719 5.0577710242 3.0687192862 3.6632673949 
4.0098610889 3.1429155531 3.685271797 5.1434840716 3.2668796969 3.2471744068 3.4762392875 3.2078083621 3.1487227871 
3.0137120776 3.2497395745 3.3086444979 3.1440623255 3.5912815554 3.1712945216 3.6998781056 3.5003632395 3.0807696716 
3.259261226 3.1503059268 3.6027466143 3.3522977181 3.1795342096 3.1362480046 3.1706065108 3.6119304647 3.3072065894 
3.455722714 3.4038955181 3.1818501898 3.4258506493 3.1656848047 3.3473472192 3.2165240437 3.3292613121 3.2820067748 
3.2982159579 3.1666020088 3.2361394309 3.5971349308 3.2947103749 3.1824994663 4.0512630492 3.1038145913 3.4216601956 
3.1827305162 3.1102432175 6.5968874753 3.4250462706 3.3290586763 3.2565497466 3.54286372 3.6296582272 3.1101710475 
3.1886366264 3.705085999 3.2173565401 5.7134985307 4.3066700123 4.4118131978 3.1793837868 3.0133721327 3.1383294376 
3.695641081 3.1077026442 3.5507086931 4.8115618113 3.6005713309 5.2227438643 3.1718982359 4.7204130458 5.2750748549 
6.9567537436 3.6238155831 4.9169615975 3.5989690459 4.5584185941 3.4145675884 3.0699314168 3.3667576497 3.5720115342 
3.6653543345 7.2374121195 3.6747984085 3.7129837415 3.3585471969 3.6122717674 3.2231781645 3.9504180506 3.3852372857 
3.1815925839 3.1798510041 3.3824417503 3.4458068105 3.3480198331 3.4418156155 3.5136631987 3.4326198229 3.1253354917 
3.1146426355 3.4953876327 3.3526981398 3.1785491116 3.0610840642 3.274885982 3.6158789598 3.6195233798 3.2936585856 
3.2889434022 3.772229973 3.4913593057 4.6486533656 3.3053042696 3.443342466 3.491511442 3.417175144 3.5549411445 
3.3183025055 3.2527383791 3.4638221401 3.4655135389 3.4492121296 3.2389987869 3.8292112867 3.491613588 3.6046815793 
3.5310254561 3.3273379982 3.2854555361 3.9616663813 3.7303691307 3.1714954546 3.094318441 3.3874551493 3.397734982 
3.6402420019 3.2777988445 3.3743687721 3.1606506393 3.359244348 3.3751572016 3.5633689977 4.726412693 3.4399097606 
3.5015130163 3.4548210641 3.2942648528 3.4261006019 3.1257755502 3.3354308952 3.0775014607 3.3370012905 3.4929703383 
3.1723559643 3.4245509189 3.2412308238 3.2748498757 3.291217432 3.4181197891 3.1043998572 3.3570198408 3.150129326 
3.2833648806 3.4783314026 3.4957856887 3.3119944576 3.2354843947 3.2391552825 3.6717405102 3.5882351219 3.1831313509 
3.6391009395 3.1071966889 3.4666874608 3.0768879802 3.4156125414 3.21002994 3.3011577818 3.071303291 3.7115906037 
3.5186692165 3.2172083052 3.6873221978 3.6319564837 3.2591567061 3.2832943563 3.5350425901 3.3962986537 3.233126321 
3.3989059583 3.6222441476 3.0941045342 3.6558869194 3.2210570753 3.0402144399 3.3728717563 4.0263873651 3.1342531091 
3.1550730334 4.284075699 3.4060169749 3.3435502337 3.4110256082 3.2784278264 4.0231115754 4.3623916951 3.8470481776 
3.434367652 3.2508599425 3.1887062734 3.1478551028 3.3944173555 3.5154549538 3.3574834258 3.1918492617 3.4222772631 
3.4441391945 4.7850511332 4.0359044313 3.4088460489 3.3298469883 3.6819636405 3.498131051 3.4719073845 3.3494185029 
3.6655568027 3.2643060652 3.3059874285 3.6034602236 3.5476565945 3.6277055096 3.5703085248 3.4786956439 3.562797412 
3.7440749886 3.4166600863 3.5889525005 3.7110848966 4.051728228 3.2247974873 3.2347421934 3.3374040749 3.6675589722 
3.2964951794 3.1224524309 3.8334633847 3.4489152693 3.5979017908 3.3963155621 3.3003248996 3.0411382989 3.1813707664 
3.4089845577 3.3702090631 3.4216198298 3.167144437 3.5096318261 3.2371865174 3.4016264047 3.453910346 3.4531303393 
3.3520649829 3.0793333197 3.6645550513 3.2405252315 3.7043693812 3.483159451 4.2817600567 3.5845086063 3.6090741564 
3.6593894137 3.7388673643 3.5614304449 3.2460374543 3.0791534769 3.2437962093 3.2829871295 3.3044823754 3.1689026821 
3.2901848212 3.4442113418 3.3698782105 3.5505429525 3.7531275789 3.8584965314 3.0958364068 3.1238883132 3.2350324858 
3.2031001031 3.2310485869 3.7193269046 3.9900834676 3.6938770505 3.1270670753 3.5738347639 3.4051453023 3.4653743472 
3.1917980286 3.2843186118 3.2395996553 3.6416435095 3.3567692913 3.3860220713 3.2809785568 3.157895402 3.1850985569 
3.9782557155 3.6045924776 3.7461909572 4.4804359519 3.1151224215 3.2536786645 3.3112918524 3.5414299087 3.578162115 
3.5039682287 3.554204514 3.8434862549 3.5659004414 3.2480685735 3.6649871098 3.5456798839 3.4057225685 3.4175393613 
3.3238148736 3.1760006016 3.8708437124 4.4803163024 3.3574283513 3.3026969487 3.1287429686 3.3436342513 3.2602150978 
3.6575776973 3.2720377776 3.0737127093 3.2905849046 3.5801839919 4.0646318338 3.9057960768 3.6093025998 3.3431212284 
5.9081270321 5.840562189 5.6508261069 4.0553068366 3.3620660911 3.3498010116 3.4664595792 3.5990549871 3.44491826 
3.3366001985 3.5766493368 6.004962758 3.2615454399 3.2312048032 3.2676370524 4.6719818192 4.0287850015 4.5713184733 
5.4060493409 4.3903115547 3.1383612195 3.124061017 4.3661787205 4.2346520189 3.5750567515 3.584360825 3.1705675886 
3.2371826274 6.5066136497 3.2663416401 4.2075822836 4.8742750012 3.0841620066 3.3507389203 4.733000665 5.3039237119 
3.5812443379 4.1906699592 4.2558574812 3.7246157448 3.2226095455 3.923485915 3.3321720208 3.4650062517 4.0903662835 
6.1523829764 3.3250000926 3.415372523 3.4484104646 3.4156162982 7.0195233213 5.6085232859 5.1601088565 5.0514272977 
5.3094756345 6.0128904334 4.4033634788 5.2546278348 5.1880348149 4.3846603813 5.1772860862 3.5657193203 3.3038781996 
3.6197451079 4.6491001561 4.3036496376 4.2426764161 3.551097086 5.6788124291 3.89333799 3.4603726186 3.1054483533 
3.7230937833 3.442530176 3.9448736666 3.7384779893 3.2059143207 3.3318503568 3.2993771655 3.2454931558 3.5515261269 
3.1686296232 3.2585233735 3.1249586562 3.4442206724 3.0768144609 3.3045181256 3.4559534705 3.2462655083 3.4221266171 
3.3150463398 3.3942355765 3.4692110535 3.2331925256 3.4526392319 3.7617786137 3.7346837875 3.1902546106 3.3477747271 
3.204548078 5.6625320322 3.366456968 3.4525855367 3.3406519507 3.2416816416 3.5312849341 3.6841879272 3.6912388194 
3.4046635608 3.4696189222 3.3987622338 3.325182037 3.7044276178 3.6128535441 3.4186116903 3.4830946428 3.26881303 
3.6895491733 3.1287237829 3.185656188 3.3236619608 3.4076883648 3.1915959119 5.6546362457 5.0791141795 6.6827416312 
3.9810401872 3.9091608669 3.7082706059 3.5378327526 3.3388043186 3.7553385395 3.2480744743 3.2208218204 4.2582079464 
3.4613685565 3.6244362129 3.1936892421 4.1554404901 3.4472838783 3.3924485718 4.1376304913 3.5722416404 4.6887702193 
4.1171492005 4.4577209084 4.6029296446 4.1093051628 3.661817659 6.3373699765 3.4796083247 5.7398963845 4.1118076167 
3.09798902 3.4340118273 3.2901567595 4.1947723529 4.6174504747 4.6160829533 4.2893044561 3.4479438829 3.4995980039 
3.5236934333 3.320079569 3.1851618659 3.3487848213 4.5920013758 3.5493494552 3.3033073036 5.5416563557 3.2081163624 
3.5351814131 3.1409606869 3.4968483484 3.9615141442 3.6797936433 3.4406932248 3.8271289767 3.6862869885 3.1604104024 
3.4332904071 3.2032011048 3.7028117265 3.7388949184 3.5751355466 3.2152924201 3.7478013863 3.441409295 3.3415802718 
5.6091084281 5.6235347418 4.2211657184 4.8462411472 3.4011498896 4.3743723761 4.6297003318 3.7902059024 4.7425021658 
3.7738681369 3.7131228219 3.664663121 4.0284767536 5.9295820876 3.7949787849 5.5980245975 3.4314756544 4.4849000201 
5.0760885663 5.1105260716 5.6319075444 3.3428007562 3.2042593243 3.3258937967 3.4333272017 4.0177337267 3.3457328127 
3.2173196691 6.108662231 3.2845059145 6.5115839552 3.6446417309 3.2625495764 3.1723403222 3.352962446 5.2924387153 
3.4340882038 3.7893892907 3.4897382043 3.3407832955 3.5528840647 3.2721629225 3.9361504862 5.849197336 4.0838979807 
3.7392207664 3.0650818416 3.3017328982 3.5104077269 3.5066887973 3.3844753903 3.649973438 3.5406481829 3.4182576562 
3.2071916514 3.4137738701 3.2118795162 3.1484207585 3.6149254317 3.386966595 4.0449385039 3.3890846586 3.4923468428 
3.0868865518 3.8791064657 3.1634654346 3.3848229583 3.7447622984 3.0794787472 3.8969128072 3.4151299322 3.3588566809 
4.0783439952 3.1611640973 3.3230088498 3.2732710601 3.4101663667 3.5028278707 3.269191181 3.7233730731 3.1614984459 
3.4517458042 3.4794191904 3.2116026887 3.4571784479 3.1367382467 3.3844631451 3.1977709788 3.2176581466 3.2304046029 
3.3098734445 3.2635462543 3.4382293374 3.5892619527 3.0657496984 3.1605423424 3.3540171717 3.3179667293 3.157385388 
3.1027896605 3.6957160908 3.3223439355 4.2195900222 3.5971150691 3.405048974 3.2245010434 3.5498267606 3.304452278 
3.0581469261 3.8233674806 3.4961658074 3.0506841858 3.2436370893 3.7422789666 3.1306941829 3.2825714536 3.5458633663 
3.3909530092 3.5334412674 3.1654695659 3.369007684 3.2160730994 3.1166805813 3.4640324726 3.2317558509 3.3000725851 
3.1730013398 3.4494322764 3.189861075 3.5034923173 3.5151350711 3.4475566905 3.2777891598 3.1320218026 3.3610380889 
3.3423537085 3.1216036439 3.1595696072 3.2386674764 3.1969840774 3.3159778556 3.5735812088 3.1737443293 3.1449969264 
3.3834390965 3.092518561 3.2229668819 3.3080199816 3.2780393102 3.912341649 4.3426036903 4.8163050289 5.1828703233 
3.4572565022 3.4251545829 3.1617100466 3.3941399734 3.2529630075 3.1519660781 3.7902605419 3.6907187529 3.930505989 