# vtk DataFile Version 5.1
vtk output
ASCII
DATASET UNSTRUCTURED_GRID
POINTS 3781 double
3.2695624863 0.4985821769 -1.2456079648 3.4 0.49999998609 -1.2431522369 3.0071629851 0.45041555606 -1.2145247742 
3.4 0.36370362043 -1.3446836472 3.4123001099 0.36370362043 -1.3446836472 2.7754619275 0.36107644737 -1.1629447769 
3.5702999115 0.35296485424 -1.3384836197 3.5945999146 0.34958741665 -1.3365337372 3.7488002777 0.31754453182 -1.3180337906 
3.7725946376 0.30940964991 -1.3133371552 3.4464136027 0.30776095708 -1.3123851826 3.5165750504 0.28950692424 -1.3018461973 
3.6194001198 0.28716868173 -1.3004961759 3.4 0.26370360851 -1.5178888321 3.412433328 0.2664790938 -1.5126274615 
3.684224987 0.26218381559 -1.2860712419 3.9187000275 0.25839486122 -1.283883667 3.5702999115 0.25296485424 -1.5116888046 
3.2693393707 0.25 -1.6761650085 3.3993059051 0.24999997628 -1.6761650085 3.5945999146 0.24958741665 -1.5097387314 
3.940824546 0.24438134487 -1.2784709338 3.472600174 0.24739634991 -1.2775337219 3.4897500992 0.24653041363 -1.2770337105 
3.7844939578 0.25547456483 -1.2821976643 2.5635868073 0.22787621021 -1.0860416412 3.6333000183 0.22678501606 -1.2656336784 
3.4489144302 0.20467843513 -1.4838106369 3.65 0.22336418629 -1.2636587143 3.7488002777 0.21754453182 -1.4912387848 
3.5373001099 0.21676504612 -1.4907888412 3.849600029 0.21630613804 -1.2595837593 3.7722000122 0.21096265316 -1.4874387741 
3.0253750899 0.20509106443 -1.6502367665 3.7881000519 0.18409001827 -1.2409837723 3.6183002472 0.19268958569 -1.4768888474 
3.8040500641 0.17876389027 -1.2379086494 4.074919593 0.17665598913 -1.2366917305 3.9422715566 0.18227084662 -1.2399334847 
4.0957000732 0.16451773643 -1.2296836853 1.7030759047 -1.2096598143 -0.69210011954 3.9187000275 0.15839486122 -1.4570888519 
4.0224867194 0.1540482731 -1.2272716855 3.675399971 0.15300393829 -1.4539762371 3.9406002045 0.14878211021 -1.4515388489 
3.472600174 0.14739634991 -1.4507389069 3.4896999359 0.14618403912 -1.4500387192 3.7855501175 0.14038162063 -1.4466887567 
3.6332000732 0.12643859386 -1.4386388779 3.65 0.12336418629 -1.4368638039 3.9333999634 0.12138962746 -1.2047836304 
3.849600029 0.11630613804 -1.4327887535 3.9479999542 0.113595438 -1.2002836227 2.7750001907 0.11089842319 -1.5958547592 
3.7882501602 0.084436368942 -1.414388752 3.9427187682 0.094699533898 -1.4179144468 4.0791874886 0.07951732671 -1.1806086988 
3.8040500641 0.078763866425 -1.4111138344 4.075799942 0.076988554001 -1.4100887299 4.2161998749 0.075317144394 -1.1781837463 
4.0957000732 0.067090591262 -1.3984325523 2.9545569348 -0.14539224641 -1.4478852447 4.2335998535 0.060248231888 -1.169483757 
2.3887289047 0.059694623947 -0.98894205093 4.0273500443 0.057762765884 -1.3989888191 4.1101499557 0.0443567276 -1.1603087425 
4.0655002594 0.039636850357 -1.1575838089 4.0903390599 0.023230768503 -1.3790517744 4.0787500381 0.030197238922 -1.1521336555 
3.9333999634 0.021389627457 -1.3779888153 4.2191999435 0.015821170807 -1.1438337326 3.9482000352 0.013855266393 -1.3736388205 
2.5531933954 -0.032120386421 -1.5132826956 4.2130051595 -0.025405623037 -1.3509714588 4.1580499649 -0.039491881327 -1.342838773 
4.2335998535 -0.039751768112 -1.3426887512 4.0808767329 -0.018720297077 -1.354440074 4.3366001129 -0.04410777092 -1.1092336655 
3.2439873604 -1.3509115673 -0.46452691485 4.2333750725 -0.058960089344 -1.1006586568 4.1812999725 -0.059003448486 -1.1006336212 
4.0655002594 -0.060363149643 -1.3307888031 4.3509998322 -0.061341619492 -1.0992837906 4.0787500381 -0.06980278492 -1.3253388405 
4.1927000046 -0.070045232773 -1.0942586899 4.2139390169 -0.09812886654 -1.3089847742 4.3236502827 -0.11362818579 -1.0726908587 
4.3366001129 -0.14410772324 -1.2824388504 1.9000001907 -0.14660153389 -0.33458890915 1.9000001907 -0.14660153389 -0.63458890915 
1.7000001907 -0.14660153389 -0.64665036201 2.254201889 -0.14660153389 -0.86983690262 1.7000001907 -0.14660153389 -1.0225274086 
1.9000001907 -0.14660153389 -1.0345888138 2.2987680308 -0.14896101993 -1.0387105337 1.9000001907 -0.14660153389 -1.3345888138 
2.9000001907 -0.14660158157 -0.63458890915 2.9000001907 -0.14660158157 -0.86983690262 4.2652265219 -0.15212925714 -1.2778075969 
4.1812999725 -0.15900344849 -1.2738388062 4.3509998322 -0.16134161949 -1.2724887848 4.1927000046 -0.17004523277 -1.2674637794 
4.2777999878 -0.17201972008 -1.0353837967 4.3825062775 -0.17656145833 -1.0327616107 1.0847425832 -0.54175423143 -0.4857586554 
4.4339000702 -0.17842831612 -1.0316838264 1.7135023117 -0.18369822502 -0.60717287064 1.7135023117 -0.18369822502 -1.0620048523 
4.287100029 -0.18457708359 -1.0281337738 1.7107048299 -0.18425466441 -0.33458890915 2.0836440137 -0.18313054177 -0.33458890915 
2.0913417816 -0.18466172218 -0.59652872086 1.0962468264 -0.36634976317 -0.81964327415 2.0913417816 -0.18466172218 -1.0726490021 
1.7086584091 -0.18466172218 -1.3345888138 2.0913417816 -0.18466172218 -1.3345888138 2.3887289047 -0.19030532837 -1.4219545364 
4.4431866789 -0.19985298769 -1.0193141837 4.3250499725 -0.20877817551 -1.2451013097 4.4251998901 -0.2242410183 -1.00523386 
2.4583876403 -0.9031270938 -1.1169165991 4.2781000137 -0.27184653282 -1.2086888313 4.3653898958 -0.27558718949 -1.204175636 
4.4339000702 -0.27842831612 -1.2048887253 4.2868000031 -0.28475031853 -1.2012388229 1.5464467049 -0.29304814339 -0.33458890915 
2.2565851785 -0.29758524692 -0.33458890915 2.2542898935 -0.2941501134 -0.48704032999 1.5464467049 -0.29304814339 -0.56155385971 
1.5464467049 -0.29304814339 -1.1076238632 2.2535535812 -0.29304814339 -1.1810354233 1.5464467049 -0.29304814339 -1.3345888138 
2.2458842513 -0.28792366276 -1.3345888138 4.3527000427 -0.29681391716 -0.96333379745 4.4450000763 -0.29739422798 -1.1939388275 
2.2643846512 -0.30925798416 -1.1972452164 4.3592998505 -0.31049718857 -0.95543375015 4.4328884889 -0.31324635348 -0.95520033898 
4.5056999207 -0.32426691055 -0.94748373032 2.2869314194 -0.34300165176 -1.3337953568 4.513299942 -0.34453191757 -0.93578386307 
2.9000001907 -0.34660158157 -0.73458886147 3.5 -0.3473245412 -0.73584106529 2.9015519716 -0.3551656723 -0.74942231178 
3.4 -0.3551656723 -0.74942231178 4.3962071285 -0.35636473135 -1.157415161 4.3530500412 -0.3966840744 -1.1366138458 
4.4537271991 -0.39756246039 -0.90516654409 2.330480957 -0.40817832947 -1.296165657 2.9000001907 -0.40817832947 -1.296165657 
4.3592998505 -0.41049718857 -1.1286388397 4.4214374542 -0.41275969017 -1.1273326175 3.2560922597 -0.42397840009 -0.61256516257 
4.5056999207 -0.42426691055 -1.1206888199 4.4041000366 -0.43018198013 -0.88633375168 3.4029698128 -0.43320407867 -0.88458890915 
3.5 -0.43320407867 -0.88458890915 1.8067314148 -0.43984336853 -1.3345888138 4.513299942 -0.44453191757 -1.1089887619 
4.4085500717 -0.44455795288 -0.87803382874 2.3566138227 -0.44728879232 -0.33458890915 2.9000001907 -0.44660158157 -0.33458890915 
2.3523654922 -0.44660158078 -1.3345888138 2.9000001907 -0.44660158157 -1.3345888138 1.9445043564 -0.45161590576 -0.23458890915 
1.9445043564 -0.45161590576 -0.33458890915 1.9445043564 -0.45161590576 -1.3345888138 1.9445043564 -0.45161590576 -1.4345888138 
1.4380602837 -0.45525979996 -0.33458890915 1.4380602837 -0.45525979996 -0.44619512558 1.4380602837 -0.45525979996 -1.2229825974 
1.4420399705 -0.44930378093 -1.3345888138 3.2536476135 -0.45654935837 -0.67111039162 4.4821052285 -0.45756277886 -0.87183692148 
3.4213527679 -0.4702460289 -0.58585252762 4.5465400165 -0.47678781048 -0.85942593454 1.7765548777 -0.48994930029 -0.23458890915 
1.775302124 -0.49023523331 -0.33458890915 1.775302124 -0.49023523331 -1.3345888138 1.7743187269 -0.49227728077 -1.4345888138 
4.4602998734 -0.49194683732 -1.0816138216 4.5541999817 -0.50062229477 -0.84914013754 3.418235492 -0.5028625714 -0.64437167974 
4.4041000366 -0.53018198013 -1.0595388412 4.5061750412 -0.53111722934 -0.82805877537 3.4 -0.53320407867 -1.0577939987 
3.5 -0.53320407867 -1.0577939987 4.4082000732 -0.54464454651 -1.0511888504 1.0848084457e-07 -0.54660148621 -0.13458890915 
0.49576884384 -0.54660148621 -0.13842860607 1.0848084457e-07 -0.54660148621 -1.3316737165 0.50000009537 -0.54660148621 -1.3345888138 
3.1508624464 -0.54762937535 -0.54117515361 0.44954767227 -0.54865074158 -0.13458890915 2.0801939011 -0.55982484818 -0.23458890915 
2.0801939011 -0.55982484818 -0.33458890915 2.0819823532 -0.56088194592 -1.3345888138 2.0801939011 -0.56104133789 -1.4345888138 
4.4932250023 -0.56038451719 -1.0421013033 0.50000009537 -0.56142711639 -0.13458890915 0.50000009537 -0.56142711639 -1.3345888138 
5.6027181472e-08 -1.7466014862 -0.69509366379 4.4308998108 -0.56891918182 -0.8062338829 0.5355453968 -0.57042837143 -0.64665036201 
0.5355453968 -0.57042837143 -1.0225274086 4.5502998352 -0.57807312012 -1.0318888664 3.1481740728 -0.58145610571 -0.59899560054 
1.4125919342 -0.58329839706 -0.33458890915 1.4125919342 -0.58329839706 -1.3345888138 4.4323001862 -0.58372821808 -0.7976837635 
1.6184480607 -0.36796787423 -0.7399370331 0.6410173893 -0.59713745117 -0.13458890915 0.63553943012 -0.59575024654 -0.58542116805 
0.6410173893 -0.59713745117 -1.0836992264 0.64665596387 -0.60145964043 -1.3345888138 4.5541999817 -0.59911756516 -1.0197388649 
2.9000001907 -0.6051656723 -1.182434845 3.4 -0.6051656723 -1.182434845 4.5201499939 -0.6133462429 -0.78058381081 
3.4213527679 -0.62295722961 -0.49768476486 4.5124000549 -0.62769641876 -1.0032389641 4.5641717511 -0.63482065836 -0.76842807545 
1.7000001907 -0.64660148621 -0.23458890915 1.7000001907 -0.64660148621 -0.33458890915 1.7000001907 -0.64660148621 -1.3345888138 
1.7000001907 -0.64660148621 -1.4345888138 0.70692732486 -1.4577352467 -0.36673518759 2.3564047701 -0.69633648523 -0.33458890915 
2.9000001907 -0.64660158157 -1.2542039871 3.5 -0.64660158157 -1.2542039871 2.5067656649 -0.68668802487 -0.61154769075 
3.4213527679 -0.65645084381 -0.55569734573 4.5666000366 -0.65725374222 -0.75523381233 4.4312999725 -0.66887583733 -0.97946386337 
[...]
CELL_DATA 14801
FIELD FieldData 1
color 1 14801 double
3.1861578368 4.145032284 3.5839302511 3.5810159858 3.6696219606 3.5228195726 4.4149640738 3.8069794877 3.3614761418 
3.5657669581 3.911457982 3.4049028974 3.8209989899 3.2034383828 3.3425712833 3.3267671498 3.3990275486 3.41269647 
3.3102940963 4.0151962603 3.3021458523 3.4038305384 3.6834308218 3.2472566507 3.0602447146 3.2285877454 3.1688588012 
3.6090890639 3.4567712959 3.3235860728 3.1495100068 3.9386550101 3.7545144658 3.2138531537 3.4448024594 3.6282475032 
3.7496644897 4.0314930766 4.4453772211 4.1369765595 4.0397719551 3.356142903 3.569286355 3.6538847977 3.3111609791 
3.8158883961 3.713588229 3.2176245448 3.3094103872 4.5261137638 4.127242765 3.4017513217 3.2305594958 3.8723638006 
3.116000724 3.1348923225 3.6449330126 3.1995253862 3.5567303597 3.4704410305 3.2341315619 3.7272757423 3.8664022299 
3.3959369403 3.4203691765 4.2258083897 3.2315944806 4.0431168016 3.9332918945 4.1132720642 3.0571122101 3.9803415074 
3.9277835573 3.5271523955 3.3036912779 3.375728761 3.7083402681 3.1401610526 3.6504391301 3.9957976081 3.58779997 
3.2114561198 3.6603155426 3.2161118698 3.0524173238 3.2963338629 5.4012994016 3.6519454662 3.4570222606 3.6519111103 
3.157063575 4.3235332324 3.4190129736 4.150556541 3.2897072463 4.0433214016 3.680447595 3.3720425338 5.0807997369 
3.3798687202 4.3143318725 3.4848228106 3.3840600606 3.182233769 3.6620887118 3.7624134417 4.1054312687 3.4942781839 
4.287213266 3.0391053815 3.5887422449 3.8103683806 3.3058943562 3.4101644346 3.5946076523 4.4141345988 3.2268381569 
3.2797811305 3.4611877846 3.8098678757 3.3570043876 4.0387190475 3.6897570615 3.6824311117 3.4994764916 3.3667787279 
3.3279980003 4.101329952 4.0829715201 4.9472301762 3.655372096 3.580556064 3.4772521893 3.2615814262 3.1945886491 
3.3021852554 3.8373170971 3.4526149626 3.0466475245 4.2484919497 3.59747928 3.9824074739 3.8529967485 3.5778948071 
4.4043695312 3.4838358235 3.6617562481 3.3280484089 3.1961014715 3.1674730792 3.7158211847 3.3061474976 3.831710431 
3.0719694648 3.6475307401 3.1400095257 3.0785144146 3.6564922517 3.5201716866 3.3402452713 3.2880015579 3.7202183204 
3.5546806457 3.372221149 4.0270076951 3.6572797808 3.8596784263 3.2317727859 3.5753907161 3.1216452944 3.4416808972 
4.938788568 4.6557794455 3.028862011 4.0043166324 3.1527211168 3.4016093587 3.4756280732 3.2304934324 3.521122475 
3.4054097128 4.1221064421 3.0699757502 3.4278854471 3.1695430817 4.4233928429 6.597354928 3.5487347911 3.4158878709 
3.2279053541 3.3251181943 3.2352324171 3.9496152446 3.8744273021 3.5800833335 3.2721896405 3.4581509821 3.6459621522 
3.9927467179 3.1640536012 3.8495877288 3.6399982355 3.174640968 3.1040695613 3.5901039133 3.3385195549 3.3931219294 
3.4338620356 4.0213482191 3.1815376924 3.3314061664 3.1913549283 3.2088438992 4.8758879578 3.6339876158 3.68936855 
3.5816703671 4.0003064647 3.4309241604 3.3842106587 3.6878375954 3.574907429 3.0852408989 3.3381295573 3.6596786852 
4.2367934531 3.4314188969 3.7308146968 3.7984583074 4.1226042273 4.2915689014 3.2875812428 3.2795547736 3.4361753846 
3.4419324566 3.6497691738 4.0669519107 3.7157812398 3.4892111474 3.5929002594 3.4837504862 3.3779201235 3.5323541043 
4.0077496654 3.2488159851 3.5860276516 3.362205385 4.122603027 3.9595671304 3.5805718152 3.254719653 3.2205070237 
4.3744340645 3.3295998564 3.3466128701 4.0923094609 4.5132440462 3.4958221565 3.9368642367 3.7957140239 3.1773096749 
4.0007691752 4.1226086358 3.4229772061 4.1558167513 3.8517762814 3.7037107938 3.4016494089 4.9238654125 3.1399730323 
3.2556097116 4.1539412996 5.7845224461 3.2949792148 3.2962503889 3.3604292624 3.3921925599 3.5580094758 3.5350403105 
3.3911435899 3.590743472 3.3766680142 3.3330019795 3.1141742979 3.4608271685 3.4189181371 3.6308065011 3.6070492145 
3.5381012958 3.3641447757 3.7852036912 3.5758976293 4.0292783033 3.3611532899 3.3944607593 3.683232671 3.2097283643 
3.5195737219 3.3226826052 3.4520968675 3.5105918584 4.9158539481 3.3323091884 3.300665859 3.4841352632 3.4307528382 
3.8167670188 4.2654605374 3.5523232162 3.2905981815 5.1616336706 3.4717589514 3.708688008 3.0241561846 3.3964918833 
3.623782381 3.4988759449 3.3101901218 3.8032155584 3.8529491782 3.1344729181 3.4798638268 3.7529311315 3.1845575005 
3.2339284304 3.3920015336 3.1536563865 3.0725819245 3.611951562 3.1737337959 3.4573586106 3.4486527345 3.1780366714 
3.1540216177 3.3159992575 3.213252712 3.4064159378 3.6096421014 3.3064710842 3.8352004781 4.4014478388 3.3722385836 
3.9531547651 3.7229949248 3.5916554036 3.2287211637 6.1647089918 3.2196306194 3.6961619683 3.3101620036 3.0973006083 
3.2896137616 3.6664794432 3.3332288186 3.1975877636 3.4301639603 3.5317753547 3.3375353473 3.1784222671 3.4197486433 
4.6592682458 4.10031819 4.0290113536 3.2686506298 6.7635980842 3.4153986444 3.4076927856 3.4227072849 3.8566262697 
3.8277316574 4.1215598583 3.1844237927 3.0317362242 3.2425167021 3.5647628605 3.0924069637 3.3603310451 3.7585410589 
3.6803052092 3.3289197355 3.5961999637 3.2068081393 3.4319255958 4.1110510963 3.1968620643 3.3658679609 3.0911302724 
3.2706490673 3.2793379508 3.3900094186 3.2710373281 3.5438103946 3.1422938444 3.4251424515 3.1508597821 3.1667958602 
3.3017831068 3.2663254445 3.5475462614 3.2951120441 3.2848300618 5.2870695089 3.458839941 3.6019712016 3.6516896174 
3.6198765926 3.4094969529 3.2595183257 4.4865028751 5.9007319762 3.5611124062 3.5919293619 3.409640905 3.6496609693 
3.50113956 4.03018457 3.2771305491 3.2289344348 3.0973433721 4.3232433267 3.6593571752 3.0820213759 3.0879854254 
3.1786842638 3.4733023677 3.192610049 3.632249902 3.7796153426 3.6519792251 4.0433462468 3.412437016 3.1525072615 
3.2357390804 5.9108403707 3.7508310718 3.8843462908 3.6773964713 3.790928163 3.7585897725 3.8787841191 4.1633931114 
3.3735723756 3.3329824665 3.2224567261 3.5381915999 3.4217502703 3.4156708282 3.1525073102 3.3368178152 3.2355472703 
3.2999663651 3.1765193805 3.9747103878 3.226083342 3.2260585751 4.1245754054 3.484193795 3.6019029981 3.958502066 
3.3175833665 3.330003487 3.3499234237 4.3942287726 3.2694116981 3.6441398468 3.9284791669 3.6531544059 3.8374459944 
3.5858983923 3.2912368937 3.4901736609 3.7306828508 3.6755688223 4.0589280467 3.25946606 3.3763107098 3.1515594831 
3.7166761315 3.8890672512 3.4270641731 3.4352049616 3.562024775 3.5994319842 3.5395307257 3.3260765342 3.5662026926 
3.8250309079 3.9185582443 3.5069576188 3.4722174575 3.6751140452 4.0966913061 3.0338527207 3.4305571112 3.3413234855 
3.9017627518 3.6686622055 3.3964051065 3.2368049676 3.9947929369 3.7225001136 4.9226099356 3.5985448169 3.5496546423 
3.6821599649 3.295225001 3.3363193549 3.2629105446 3.5403551569 6.5916027174 3.1926939655 3.6613735934 3.2914530693 
3.0914863563 3.4082900112 3.2869289234 3.2083193611 3.6749787802 3.2948399316 3.345545515 3.2004440618 3.3097099 
3.7001294663 3.5379257323 4.1546670593 3.5979906393 3.4249100087 3.8565079782 3.3065740278 3.617804423 3.3354553312 
4.1831753196 3.5436698493 3.4287404534 3.3134782376 3.3913003171 3.3085076206 4.0450196306 3.9405665024 3.6863555765 
4.2639021021 3.2212911094 3.3544016224 3.4657545652 3.5879605495 3.5764994816 3.7233197718 3.1270074613 3.4698017145 
3.3391297616 3.576355518 3.4021630846 3.0488096042 3.3020197792 3.3365847886 3.5821658719 3.9958407092 3.7598725263 
3.8720737304 3.263443749 3.0953381384 3.6467041549 3.1286101191 5.7717219809 3.2648740035 3.5306231688 3.3461528127 
3.2324149224 3.095354289 3.4711013164 4.0396659353 3.5626875073 4.0035500141 3.9047100255 3.1832039614 3.186385754 
3.2066712889 3.5993784963 3.875679004 4.0568546748 3.7400832886 3.5291718427 3.7308833948 3.4654970193 3.3083510249 
3.8655721517 3.8537394269 3.984319529 3.527707876 3.9838966623 3.7244906305 3.7960457658 3.830343424 3.4830081782 
3.379900116 3.2973213089 3.9245380383 3.358411461 3.5104439018 3.5141417948 3.922516184 3.5468904896 3.6745716762 
3.9942594701 3.5832405968 3.2760649807 3.2571124129 3.8339410035 3.2635080259 3.3133767135 3.3261415128 3.5291944547 
3.2987375927 3.2656580364 3.633719516 3.2524904665 3.6056284819 3.8763755566 3.8920817609 3.7712960999 3.1281960595 
3.7364520254 4.0428600419 3.4069247695 3.3844792128 3.8277296663 3.7112425161 3.3513305598 3.5317037624 3.0373561983 
3.6658432549 3.2539524577 3.542163653 3.1715006613 3.3062353021 3.3889063982 3.1714217663 3.2950116493 3.256795771 
3.3957908942 3.2745345844 3.4770896522 3.6109184113 4.693468955 4.0722188284 3.6800679107 3.8042796061 3.8985596917 
3.1247084706 3.2171173804 3.2830887638 3.1479102101 3.4283263238 3.103674399 3.4442975742 3.2672683389 3.2030241634 
3.6405918753 3.7175378102 3.1585813645 3.6427295802 3.4915738467 4.5797068656 3.5145488377 3.5756255135 3.2623356076 
3.556670835 3.7142112914 3.2159880795 4.1448657328 3.2003748997 3.4272882061 4.236747831 3.804668554 3.5452732925 
3.7049780794 4.1027206232 3.2276655126 3.6499921711 3.4326074339 3.8934877032 3.3580248762 3.3477068343 3.108459033 
3.152596305 3.1315925773 3.6777046669 3.2231352483 6.1194276363 6.1711803062 3.6839658292 3.6333443118 3.2102805082 
3.2803225833 3.4450987234 3.2030550485 3.7000170187 3.9305161247 3.1826372994 3.2107601608 3.6394042139 3.1157593107 
3.8437258419 3.3738926139 3.2949911727 3.5050516015 3.4186288153 3.6852637043 3.402155326 4.1860608565 3.266678877 
3.3500306314 3.659234708 3.1832798771 3.7717611234 3.4150053906 3.2957632789 3.4957322993 3.2764922075 3.6516426054 
4.3592950279 4.0987335538 3.5200312293 3.3155731045 3.4268699792 3.7955581564 3.3596281116 3.547325294 3.1342220564 
3.900846839 3.5557734598 3.2435208027 3.091612645 3.1044467315 3.5939690339 5.430829589 3.8378440617 4.1313897506 
3.8030072805 3.4038554688 3.2578883235 3.1787530806 3.9972243288 3.1580416144 3.6916763441 4.0210125664 4.1488322699 
3.6641924994 3.2103966341 3.1912221059 3.4754282815 3.7361064461 3.6727492664 3.8357328552 3.3443960646 3.2608475132 
3.158995092 3.4672986131 3.3722199152 3.2806993731 3.2030578012 3.5499402695 3.6584941938 3.5292923885 3.1556245317 
3.4309398661 3.3446337694 3.3339491485 3.6331895575 3.7123159988 3.873931891 3.4820872423 3.8369098681 3.8525923948 
4.2820824347 3.428725212 4.1838655576 4.2677198074 3.458043622 3.8279272294 3.3685025328 4.1432358605 3.2627750618 
3.4497635853 3.1415655964 3.2931508039 3.4949679944 3.5114414169 3.9455668955 4.1501581004 3.4581526827 3.5990380944 
3.1454461867 3.3684167912 3.532671961 3.2162193548 3.2642780887 3.4850371175 4.5877448925 3.319150516 3.5149942563 
3.9047730483 3.2362336221 3.2710145074 3.1138797538 3.2667628228 3.3953166138 3.1605434164 3.6063435329 3.2731198482 
3.6747846402 3.1381511401 3.3914167003 3.48987689 3.5954649064 3.1691378235 3.261678621 3.4148050774 3.985503378 
3.316513474 3.1570905092 3.0516678748 3.432766047 3.9587714163 3.2350562657 3.8786279276 4.1477517847 3.3917802982 
3.0319936258 3.3590752153 3.5318923042 3.9025979309 3.6661792458 3.4385189548 4.3688730365 3.6613773696 3.7130437464 
3.2773527521 3.1618214792 3.751115101 3.4864337312 3.7426690722 3.0967188234 3.274968844 3.7097047556 3.8456664286 
3.6454182375 4.0108067249 3.3924988516 4.8149408802 4.2708810507 3.3247252338 3.1819435716 3.4425058298 3.5980743903 
3.3196740341 3.8282560727 3.5505102273 3.4102500273 3.1909063828 3.5910193247 3.629742495 4.1930679335 3.9275059367 
3.9522947848 4.1745984057 3.6706173585 3.2477399351 3.6795676216 3.6452755674 3.5047070377 3.4561713402 3.5351226929 
4.9987772434 3.2773526698 3.2700017465 3.4935047276 3.4749266919 3.3120881062 3.9999823267 3.6035434259 3.1341114118 
3.344968205 3.4385198963 3.8441211281 3.3045763831 3.1715342212 3.728291456 3.4600847772 3.2268592172 3.5953934814 
3.8257420776 4.1005157983 3.4898595707 3.3887398468 3.2404663133 4.0285397482 4.1299793221 5.4633258373 3.5979139816 
5.0777627884 4.2728858335 3.3742213727 3.2524889656 3.4924392255 3.5066984291 3.5559338647 3.3784935559 3.3368317279 
4.1510117859 4.1917228227 3.311850406 3.2417247107 3.2342520724 3.8935574672 3.6002231681 3.9328633418 3.5484589484 
3.759707541 3.5591817955 3.7443150311 3.6808182567 3.9023452629 3.2069542589 3.1049716499 3.6500472305 3.07932263 
4.4203981792 3.1649295514 3.1521075273 3.2275765993 3.6505778986 3.3441649153 3.9177990896 3.2263614599 3.6655963017 
3.0946585437 3.6086746308 3.2845928112 3.2179232912 3.255943945 3.3015688789 3.3049619193 3.1773639202 3.8491604678 
3.2203334304 3.1329110313 3.8118595038 3.5211610639 3.908113354 3.3734722689 3.3739355692 3.7003148468 3.4650127332 
3.8977152209 3.0653022708 3.3988321363 3.6582406318 3.439497438 3.6570715861 3.4810850832 3.219754575 3.3819844187 
3.5640151007 3.7402428085 3.3048957284 3.0620838887 3.29982041 3.3774693908 3.1019533984 3.5493448206 3.4729654885 
3.3914702258 3.5045585419 3.3913709859 3.539558237 3.6161415156 3.9115236179 3.1732632433 3.2624717589 3.7002464622 
3.8397880372 3.6722266053 3.7499614458 3.5072855162 3.816923818 3.6734069265 3.1386900103 3.1247673505 3.1782098899 
3.5070059024 3.3046614142 3.3085951851 3.4623991542 3.4025819163 3.0741689339 3.9893564127 3.2063394563 3.5520788248 
3.2928515516 3.3171104277 3.9837577179 3.5358555604 3.6794845992 3.2918031424 3.8892915225 3.2545620679 3.2221763641 
3.3507382843 3.0722016917 3.3794167762 4.0151568014 5.2624768443 3.226473304 3.9546207896 3.7122560793 4.1407495816 
3.4585077933 3.5072542642 3.9345711881 3.1262611633 3.3085800479 3.5812899217 3.6008091922 4.485436412 3.3945981422 
3.248828074 3.2949436082 3.5552173165 3.7997827669 3.9460526283 3.210189241 3.3310022285 3.3018056358 5.3908550217 
5.3337328708 4.441190199 3.5102069223 3.2716099274 3.9032253831 3.846000088 3.8636527253 3.5489783278 3.1253287003 
3.3627193559 3.2222440742 3.1731252566 3.363896499 3.9636440664 3.6139637725 3.2530725801 3.7695757323 3.6561262407 
3.6770168706 3.2825269099 3.8298821595 3.3622980289 3.4091118543 3.2912065318 3.8255670353 3.3390820486 3.2636508562 
3.6496804441 5.0024702844 4.3552450619 3.4466335201 4.1046975867 3.8297626794 3.3258762526 3.2997711118 3.2158022867 
4.4295987363 3.2158861531 3.1641017871 4.0169006268 3.5682336585 3.5079924149 3.430339259 3.274474217 3.1732728263 
3.27004444 4.2797678937 3.7889642639 3.4802188932 3.4596902967 3.4282730776 6.4142028869 3.2706562954 4.5698652268 
4.5749712192 3.4681500357 3.3708797989 3.1392409189 4.2139756034 4.0436324159 3.9460643053 4.0932246821 3.7721700244 
3.8349946066 3.5499097308 3.5721982787 3.3541060433 3.524493451 3.4263651372 3.3227845338 3.2329131801 3.6143329876 
3.6288781614 3.4243635057 3.3790332192 3.4534587181 3.6443099254 4.2077726273 4.2779273324 3.7371513084 3.6360415123 
4.1599306175 4.9868966758 3.6248468863 3.7909755811 3.5339938246 3.6550562707 4.0590333948 3.6368194224 3.2069418789 
3.6004298993 3.7185858173 3.8143024213 3.6479266891 3.6768261851 3.4724174261 3.1184637655 3.3758786219 3.4715029191 
3.2474283781 3.7359249321 3.1237650414 3.3924998062 3.1938827854 3.0847384619 3.3427581979 3.327260143 3.0858092323 
3.5927155395 3.7777943871 3.8445309804 3.5911905829 3.7314278319 3.1973913688 6.4217148868 4.746717654 3.1274452546 
3.2433256558 3.1106445634 3.2642791909 4.2761013847 3.8702646095 3.1679900998 3.8895797503 3.4068064437 3.3976355865 
3.6099867539 3.8891243348 3.243659346 3.4663131041 3.3438374539 3.2540908432 3.6885450755 3.359886109 3.4885934017 
3.6436632128 3.2995510286 3.4667979883 3.4429822141 3.478146078 3.6329418852 3.5055581064 3.7960131616 3.4690678195 
4.2805808622 3.2457433957 3.1180401827 3.4496438313 3.5953513298 3.8005988321 3.8116461971 3.4519813695 3.734825337 
3.5261124712 3.9309507274 4.0925251358 3.2600790578 3.586568056 3.5077155293 3.3726823754 3.6448847788 3.8642242188 
3.5761133016 3.3464427201 3.2702743542 3.5426839167 5.3173739798 3.1187650445 3.7091939852 5.578541087 3.6676171298 
3.4568372411 3.1525072572 3.4687664933 3.3864930271 3.4829185235 3.9741153594 3.6583017681 3.2451556227 3.1848124026 
3.8487490316 4.9850066562 4.3634474475 3.912340739 3.2047843681 3.5383557595 3.4060870907 3.1918232939 3.7953609859 
3.601553946 4.1280321016 4.0395418686 3.7657136655 3.4108976807 3.8992494073 3.7216433412 3.9837573227 3.9193187045 
4.195144792 3.4668264819 3.2983003892 3.8651409595 3.7673748258 3.7358396429 3.4898823294 3.6251663053 3.759158235 
3.1505157071 3.1563484557 4.3445295174 3.2537338168 3.6422532055 3.22310075 3.1461987778 3.4177870617 4.2647051814 
3.5131013061 3.4728421024 3.2347794892 3.3310426116 3.3800765405 3.96637587 4.0355282419 3.8775676852 3.5051462735 
3.2520698215 3.6387014452 3.867975491 3.50061209 3.9195504882 3.899826585 3.9431356176 3.2415054911 4.4207390266 
4.1658483407 3.8603336732 3.5189467923 4.1421796532 3.1600230411 3.7463893397 3.6062073847 3.4982317349 3.326294736 
3.9377347086 4.3524675288 3.5536471944 3.6863315176 3.703759855 3.4296130984 3.5432261292 3.9899769163 4.0215724584 
4.104103865 3.6854637685 3.6876171654 3.8354144072 4.0951016414 3.5165505565 4.2179576152 3.9393858659 4.0031110273 
3.4701879442 5.8443183633 6.5333157042 3.5272223083 4.0190535614 4.4052736225 3.4084774432 3.7052585553 4.0366740778 
3.6898322384 3.5147054062 3.8703398425 3.5359800354 4.6864668903 3.6055066586 3.6093673314 3.6456729836 3.949608283 
3.8940901163 4.0073634906 4.0089044476 3.4874061593 3.8922372359 3.1828879916 3.5866135606 3.4137831731 3.6889860302 
4.008267904 3.3051608145 3.1874206376 3.5418707309 3.6326803646 3.3262183797 3.161726065 3.2172484324 3.4531729374 
4.5587854333 3.6842901525 3.4953349935 3.848557974 3.7688086729 3.2271973944 4.1511222724 3.7732391955 3.8152986786 
3.6518465252 3.238407389 3.2192895673 3.2262364434 3.2875311609 3.2514783813 3.4050037577 3.3889918196 3.4872833634 
3.9506931829 3.6954779304 3.4744409086 3.4222015713 3.4054453515 3.3278662556 3.224664196 4.2009651447 3.4523738049 
3.1111490709 3.1306561599 3.5397073436 5.1662380258 3.2680480097 4.0868432814 3.3250570898 3.286377783 3.7287467433 
3.9052347459 3.6561410507 3.4815280649 3.1699698414 3.3781372545 3.7795178031 3.6949138425 3.4498094023 3.8687399179 
4.3293996966 3.4396198178 3.1925481868 3.4926101765 3.3951806257 3.4879532692 3.988102964 3.4038093714 4.0004063512 
3.1919599298 3.272329047 3.7816287492 3.8608904287 3.9632810538 3.5199684893 3.5802724444 4.4250905945 3.564476002 
4.1065774026 3.2443154599 3.5112526011 3.9024170418 3.2956621686 3.46910948 3.5130870658 3.6393989234 3.3754848229 
3.7403858476 3.7695341737 3.2122480028 3.3900942795 3.4195125355 4.4315483467 4.1991140328 3.944027059 3.1667187394 
3.98747911 4.5075345223 3.3039381075 3.4321935577 3.5557816944 3.1707109241 3.6108988873 3.4566494334 3.2500155579 
3.1175700831 3.4678654898 3.4194757772 3.7208718973 3.7334180817 3.8978267892 4.0425671466 4.1549163553 3.3218666989 
3.733043797 3.8613615434 3.5500543094 3.5115884239 3.2680030745 3.222925384 3.792088074 3.3324085079 4.213561332 
3.7627676207 3.5400795804 3.6828837733 3.6782026389 3.5512629908 3.6018323026 3.7680488883 3.1776759785 3.5139350911 
3.5560374071 4.1593031345 3.924762864 3.5046444335 4.008743366 3.879784255 4.127747645 4.2448951747 3.6833300932 
4.1898513177 3.458097856 4.0031779299 4.8140912109 4.1418512785 3.1469861984 3.2991552094 3.8709117372 3.2999534016 
3.2332383264 3.3762652847 4.1169945621 3.8527208459 3.5009932133 3.8009822212 3.9091471549 3.6906080958 3.7198267855 
3.4760342004 3.7178062078 3.3764211144 3.4486423075 3.383705371 3.4542883036 3.2698277194 3.7548418832 3.531417045 
3.2505488836 3.1985383149 3.6725305237 3.6631275072 4.2555847217 3.3527918623 4.4969074138 3.3900840545 3.6968397848 
4.0261478832 4.0137117033 3.8671501146 3.3192956191 3.5202379359 3.9803929671 3.3805243974 3.5065285638 3.2416496623 
3.128884414 3.6260297061 4.3853080162 4.0860386949 3.5748202545 3.2724222134 3.3458359326 4.0000269938 4.2798334562 
4.0334675925 3.6210163089 3.2178410027 3.5525493412 3.7437173598 3.3777230193 3.5927339251 3.0271966355 3.8215758919 
3.4854874066 5.8888608021 4.2000194661 4.0371742844 3.8197794917 3.7982001757 4.2186680837 3.2677947394 3.3890608001 