# vtk DataFile Version 5.1
vtk output
ASCII
DATASET UNSTRUCTURED_GRID
POINTS 1541 double
-2.307988739 -0.0098874759674 1.4536478043 -2.307988739 0.14051251888 1.4536478043 -2.307988739 -0.0098874759674 0.80104367273 
-2.307988739 0.14051251888 0.58884776663 -2.307988739 -0.0098874759674 -0.44985223217 -2.307988739 0.14051251888 -1.0884258676 
-2.307988739 -0.0098874759674 -1.4039522171 -2.307988739 0.14051251888 -1.4039522171 -2.157588768 0.14051251888 1.3032477379 
-2.157588768 0.29091251373 1.3032477379 -2.157588768 0.29091251373 0.27138751234 -2.157588768 0.29091251373 -0.38875223994 
-2.157588768 0.14087628481 -0.5878321243 -2.157588768 0.29091251373 -0.9339522481 -2.157588768 0.14051251888 -1.2535522461 
-2.1567119149 0.29091251373 -1.2535522461 -2.0641191023 0.14051251888 -1.4039522171 -2.007188797 0.29091251373 1.1528477669 
-2.007188797 0.44131250933 1.1528477669 -2.007188797 0.44131250933 0.77684775591 -2.007188797 0.29091251373 0.31516753026 
-2.007188797 0.44131250933 -0.42291072381 -2.007188797 0.29091251373 -0.72715222836 -2.007188797 0.29091251373 -1.1031522751 
-2.007188797 0.44131250933 -1.1031522751 -1.9260052673 0.29091251373 -1.2535522461 -1.9334164323 -0.0098874759674 0.9862690899 
-1.856788826 0.44131250933 1.1528477669 -1.856788826 0.44131250933 1.0024477959 -1.856788826 0.44131250933 0.85204772949 
-1.856788826 0.59171251535 0.85204772949 -1.856788826 1.1933125305 0.85204772949 1.4749157958 -0.0098874759674 0.11346118386 
-1.856788826 1.4941124725 0.85204772949 -1.856788826 0.44131250933 0.70164775848 -1.856788826 0.59171251535 0.70164775848 
-1.856788826 1.1933125305 0.70164775848 1.7105476312 -0.0098874759674 0.085952872732 -1.856788826 1.4924549678 0.70164775848 
-1.8661264061 0.44131250933 0.057718268821 -1.856788826 0.44131250933 -0.501552248 -1.856788826 0.44131250933 -0.65195221901 
-1.856788826 0.59171251535 -0.65195221901 -1.856788826 1.1933125305 -0.65195221901 -1.856788826 1.4941124725 -0.65195221901 
-1.856788826 0.44131250933 -0.8023522377 -1.856788826 0.59171251535 -0.8023522377 -1.856788826 1.1933125305 -0.8023522377 
-1.856788826 1.4941124725 -0.8023522377 -1.8837727623 0.44131250933 -0.92825702652 -1.856788826 0.44131250933 -1.1031522751 
-1.8191888332 0.29091251373 1.3032477379 -1.6881039088 -0.0098874759674 1.1132517512 -1.706388855 0.44131250933 1.0024477959 
-1.706388855 0.59171251535 1.0023374664 -1.706388855 1.1933125305 1.0024477959 -1.706388855 1.3437125015 1.0024477959 
-1.706388855 1.4941124725 1.0024477959 -1.706388855 0.44131250933 0.85204772949 -1.706388855 0.59171251535 0.85204772949 
-1.706388855 0.85491250038 0.85204772949 -1.706388855 1.1933125305 0.85204772949 -1.706388855 1.3437125015 0.85204772949 
-1.706388855 1.4941124725 0.85204772949 -1.706388855 0.44131250933 0.70164775848 -1.706388855 0.59171251535 0.70164775848 
-1.706388855 0.85491250038 0.70164775848 -1.706388855 1.1933125305 0.70164775848 -1.706388855 1.4941124725 0.70164775848 
-1.706388855 0.44131250933 0.55124773979 -1.706388855 0.59171251535 0.55124773979 -1.706388855 1.1933125305 0.55124773979 
-1.706388855 1.3437125015 0.55124773979 -1.706388855 0.44131250933 0.40084776878 -1.706388855 0.59171251535 0.40084776878 
-1.706388855 0.59171251535 0.11907656921 -1.706388855 1.4941124725 0.1047477575 -1.706388855 1.3437125015 0.024847768247 
-1.706388855 0.44131250933 -0.075851865687 -1.706388855 0.44131250933 -0.35115222931 -1.706388855 0.59171251535 -0.35115222931 
-1.706388855 0.44131250933 -0.501552248 -1.706388855 0.59171251535 -0.501552248 -1.706388855 1.1933125305 -0.501552248 
-1.706388855 1.3437125015 -0.501552248 -1.706388855 0.44131250933 -0.65195221901 -1.706388855 0.59171251535 -0.65195221901 
-1.706388855 0.93011250377 -0.65195221901 -1.706388855 1.1933125305 -0.65195221901 -1.706388855 1.3437125015 -0.65195221901 
-1.706388855 1.4941124725 -0.65195221901 -1.706388855 0.44131250933 -0.8023522377 -1.706388855 0.59171251535 -0.8023522377 
-1.706388855 0.93011250377 -0.8023522377 -1.706388855 1.1933125305 -0.8023522377 -1.706388855 1.3437125015 -0.8023522377 
-1.706388855 1.4941124725 -0.8023522377 -1.706388855 0.44131250933 -0.95275220871 -1.706388855 0.59171251535 -0.95275220871 
-1.706388855 1.1933125305 -0.95275220871 -1.706388855 1.4941124725 -0.95275220871 -1.4880803745 0.14051251888 -1.2535522461 
-1.5559887886 0.44131250933 1.0024477959 -1.5559887886 0.59171251535 1.0024477959 -1.5559887886 1.1933125305 1.0024477959 
-1.5559887886 1.4941124725 1.0024477959 -1.5559887886 0.44131250933 0.85204772949 -1.5559887886 0.59171251535 0.85204772949 
-1.5559887886 0.85491250038 0.85204772949 -1.5559887886 1.1933125305 0.85204772949 -1.5559887886 1.3334633318 0.85204772949 
-1.5559887886 1.4941124725 0.85204772949 -1.5559887886 0.44131250933 0.70164775848 -1.5559887886 0.59171251535 0.70164775848 
-1.5559887886 0.85491250038 0.70164775848 -1.5559887886 1.1933125305 0.70164775848 -1.5559887886 1.338646619 0.70164775848 
-1.5559887886 1.4941124725 0.70164775848 -1.5559887886 0.44131250933 0.55124773979 -1.5559887886 0.59171251535 0.55124773979 
-1.5559887886 1.1933125305 0.55124773979 -1.5559887886 1.3437125015 0.55124773979 -1.5626811232 0.59171251535 0.23672838492 
-1.5559887886 1.4941124725 0.23164776564 -1.5559887886 1.3437125015 0.06244776845 -1.541154436 0.59171251535 -0.030277784843 
-1.5559887886 1.4941124725 -0.27595223635 -1.5559887886 0.44131250933 -0.501552248 -1.5559887886 0.59171251535 -0.501552248 
-1.5559887886 1.1933125305 -0.501552248 -1.5559887886 1.3437125015 -0.501552248 -1.5559887886 0.44131250933 -0.65195221901 
-1.5559887886 0.59171251535 -0.65195221901 -1.5559887886 0.85491250038 -0.65195221901 -1.5559887886 1.1933125305 -0.65195221901 
-1.5559887886 1.3437125015 -0.65195221901 -1.5559887886 1.4941124725 -0.65195221901 -1.5559887886 0.44131250933 -0.8023522377 
-1.5559887886 0.59171251535 -0.8023522377 -1.5577266813 0.92529688427 -0.8023522377 -1.5559887886 1.1933125305 -0.8023522377 
-1.5559887886 1.3437125015 -0.8023522377 -1.5559887886 1.4941124725 -0.8023522377 -1.5559887886 0.44131250933 -0.95275220871 
-1.5559887886 0.59171251535 -0.95275220871 -1.5559887886 1.1933125305 -0.95275220871 -1.5559887886 1.4941124725 -0.95275220871 
-1.4923427711 -0.0098874759674 -1.4039522171 -1.4807888031 0.44131250933 -0.35115222931 -1.4069989482 0.59171251535 -0.35115222931 
-1.3997097038 0.29091251373 -1.2535522461 -1.4126791501 0.29091251373 -1.1031522751 -1.3942278125 0.44131250933 -1.1031522751 
-1.4055888176 0.44131250933 0.85204772949 -1.4055888176 0.59171251535 0.85204772949 -1.4055888176 1.1933125305 0.85204772949 
-1.4055888176 1.3437125015 0.85204772949 -1.4055888176 0.44131250933 0.70164775848 -1.4055888176 0.59171251535 0.70164775848 
-1.4055888176 1.1933125305 0.70164775848 -1.4055888176 1.3437125015 0.70164775848 -1.4055888176 1.4941124725 0.70164775848 
-1.4055888176 1.7197125244 0.70164775848 -1.4055888176 1.9432938636 0.70164775848 -1.4055888176 1.3437125015 0.55124773979 
-1.4055888176 1.4941124725 0.55124773979 -1.4055888176 1.7474470594 0.55124773979 -1.4055888176 1.9453124809 0.55124773979 
-1.4055888176 1.0429125118 0.40084776878 -1.4055888176 1.1933125305 0.40084776878 -1.4055888176 1.3437125015 0.40084776878 
-1.4055888176 1.4941124725 0.40084776878 -1.4055888176 1.6445125389 0.40084776878 -1.4055888176 0.59171251535 0.25044777393 
-1.4055888176 1.0429125118 0.25044777393 -1.4055888176 1.6445125389 0.25044777393 -1.4055888176 1.958384637 0.25044777393 
-1.4055888176 2.2461125183 0.25044777393 -1.4055888176 1.3261596044 0.20151146992 -1.4055888176 0.59171251535 0.10004776716 
-1.4055888176 0.81731249571 0.10004776716 -1.4055888176 1.0429125118 0.10004776716 -1.4055888176 1.9453124809 0.10004776716 
-1.4055888176 2.0957125473 0.10004776716 -1.4055888176 2.2461125183 0.024847766757 -1.4055888176 0.59171251535 -0.050352233648 
-1.4055888176 0.81731249571 -0.050352233648 -1.4055888176 1.0429125118 -0.050352233648 -1.4055888176 1.9453124809 -0.050352233648 
-1.4055888176 2.0957125473 -0.050352233648 -1.4055888176 1.4333951244 -0.11345832684 -1.4055888176 0.59171251535 -0.20075223446 
-1.4055888176 1.0429125118 -0.20075223446 -1.4055888176 1.6445125389 -0.20075223446 -1.4055888176 1.9829125214 -0.20075223446 
-1.4055888176 2.2461125183 -0.20075223446 -1.4055888176 1.0429125118 -0.35115222931 -1.4055888176 1.1933125305 -0.35115222931 
-1.4055888176 1.3437125015 -0.35115222931 -1.4055888176 1.4941124725 -0.35115222931 -1.4055888176 1.6445125389 -0.35115222931 
-1.4055888176 1.3437125015 -0.501552248 -1.4055888176 1.4941124725 -0.501552248 -1.4055888176 1.7197125244 -0.501552248 
-1.4055888176 1.9453124809 -0.501552248 -1.4055888176 0.44131250933 -0.65195221901 -1.4055888176 0.59171251535 -0.65195221901 
-1.4055888176 1.1933125305 -0.65195221901 -1.4055888176 1.3437125015 -0.65195221901 -1.4055888176 1.4941124725 -0.65195221901 
-1.4055888176 1.7197125244 -0.65195221901 -1.4055888176 1.9453124809 -0.65195221901 -1.4055888176 0.44131250933 -0.8023522377 
-1.4055888176 0.59171251535 -0.8023522377 -1.4055888176 1.1933125305 -0.8023522377 -1.4055888176 1.3437125015 -0.8023522377 
-1.3726887822 -0.0098874759674 1.4536478043 -1.3303887844 0.44131250933 1.0024477959 -1.3303887844 1.4941124725 0.85204772949 
-1.3164468333 0.44131250933 0.40220240728 -1.3809437834 0.59171251535 0.40084776878 -1.3303887844 0.44131250933 -0.501552248 
-1.3303887844 1.4941124725 -0.8023522377 -1.3365998502 0.44131250933 -0.9324862079 -1.2551887512 0.44131250933 0.85204772949 
-1.2551887512 0.59171251535 0.85204772949 -1.2551887512 1.1933125305 0.85204772949 -1.2551887512 1.3437125015 0.85204772949 
-1.2551887512 0.44131250933 0.70164775848 -1.2551887512 0.59171251535 0.70164775848 -1.2551887512 1.1933125305 0.70164775848 
-1.2551887512 1.3437125015 0.70164775848 -1.2551887512 1.4941124725 0.70164775848 -1.2551887512 1.7197125244 0.70164775848 
-1.2551887512 1.9453124809 0.70164775848 -1.2551887512 1.3437125015 0.55124773979 -1.2551887512 1.4941124725 0.55124773979 
[...]
CELL_DATA 4236
FIELD FieldData 1
color 1 4236 double
5.864743493 3.4869543892 4.7205587724 4.5661100212 3.8459327335 3.6963341314 4.2403509964 4.2227271507 3.9685026522 
4.6214871254 3.9643684581 3.6824350231 3.7154571844 3.9300062229 4.0660292188 3.7721406327 3.5892628731 4.8929113821 
3.968502609 3.5965801857 3.9685026941 4.5121614484 4.3906871751 3.4903302219 4.3653527985 4.1288418299 3.9685026299 
4.2643917411 3.2832205308 3.9685026522 4.3399807831 4.1401780115 3.9857053667 4.3653528706 4.2661403127 3.968502546 
4.6749853475 4.423653158 4.0617987715 4.9034763623 4.2111898152 3.9685025434 4.8476116945 3.7922887837 3.9642491548 
3.4467997379 4.7290580841 3.9606352255 3.8961615019 4.0531427832 4.8493888567 3.9685025683 4.0573152048 4.492324112 
3.9685026103 3.9685026299 3.9685028396 3.6008630789 3.979521281 4.0545206273 3.9674255883 3.9685026522 3.3643485037 
3.8803079819 4.6620937644 3.8607131952 3.968502546 3.968502567 4.9706087377 4.0000000793 4.75 4.2550085618 
3.9685026719 3.7206169763 4.8054155817 4.5194955032 3.9685024844 4.2870156372 4.0341082312 4.2849873871 4.1200095002 
5.4566909576 3.9685025893 4.2015225899 4.1161647071 3.7540167235 3.9685026299 3.968502609 3.7270440962 3.9685027007 
4.3085428636 3.4724398025 3.968502567 3.3172509811 3.9679807263 3.9685025329 4.0913371413 3.9685022944 3.9685025683 
3.9685025683 3.7974389437 3.9685026614 4.3156251594 4.3339568829 3.5585279983 3.5716523669 4.1642344545 3.177791252 
3.735124891 4.0555396045 3.9207066443 3.4724398104 3.9685024622 4.3386680889 3.9685027112 3.9685025041 3.8466854731 
3.8177840913 4.1642343745 3.869411619 3.9685026299 3.8587965482 3.9685025264 3.968502567 3.913690986 3.5235663563 
3.6927464126 4.0697253302 4.7499994716 3.9760388666 3.9685025041 3.3480114572 3.3108775202 4.5428007779 4.1642341665 
3.9857053873 3.9685027557 4.0403425071 4.5527176257 3.5484826788 3.4170057285 4.6692159605 4.4046471398 3.968502588 
4.3653528064 4.5093048587 3.9685028291 3.1527894843 4.1858167319 4.0185901314 5.828737973 4.1690473073 4.2889588248 
4.2068776702 4.4753865032 3.8444868356 4.5468753387 3.8270667038 3.7630686662 3.9685026299 4.8385128651 4.3653528955 
4.3313132506 3.9685028409 3.8395261852 7.1433047339 3.9685025015 4.75 3.9685025041 4.4999995244 3.9685026719 
4.2499991545 5.702087719 3.5500866624 4.3411569622 4.0137389246 3.8692898125 4.5428016421 3.6338595124 3.8658559949 
3.9632222159 5.5 3.7499992074 3.9685028816 4.1041406794 4.6431239498 3.3174713207 5.4999986261 3.9685026299 
4.5056373608 3.9839446265 4.4999990489 3.5716523669 4.7499992602 5.2605611858 5.0338918986 4.004708004 4.5428013541 
3.968502546 4.0367114374 4.3344223048 3.9685029654 4.1642346126 5.4999986261 3.9685026299 5.6102603339 3.9611297905 
3.9685024176 4.138378483 4.0275868593 4.2049983861 4.3509890488 4.1642346499 3.9685028816 3.9954099536 3.9685027033 
4.2500001585 4.970608817 3.8820666366 3.9409752078 3.968502567 4.1642345779 4.3653528195 3.9685026941 3.9685026719 
3.6116665127 3.9685026312 3.9685026928 3.9685027977 3.9685025683 4.6655641279 3.9685025683 3.7511122297 4.2499998745 
3.2757169659 4.4007055805 3.9685028816 4.2499991545 3.9685023783 4.5000002378 3.9685027557 4.550182305 3.9685029038 
3.9611296677 3.9685025683 3.300038592 3.9685026692 5.0322309387 4.1156514092 4.9374989993 3.9685028816 4.5795793818 
5.4409726974 3.9685025683 3.9886110869 4.3236211928 3.9685026299 3.8157131858 3.8863369639 3.968502546 3.9685026299 
3.4739934485 3.4724398169 4.75 3.9685027977 3.9685027557 3.9685024622 3.8771013569 6.1122677068 6.6224401241 
3.5727575428 3.8444871639 3.96850282 3.9685027557 4.852618641 4.1642346842 3.9685027977 5.0598410733 3.9598213114 
3.3282119988 4.6718756787 3.9685025041 3.9759444196 6.2500006077 3.9685024622 3.9685028187 3.415757909 3.5210776206 
3.7598418408 3.5813789144 4.2870154214 4.4524102493 3.5716523669 4.6629643078 3.5575686874 4.2849836725 4.0102064587 
3.2320749063 4.1495886378 4.3344836391 4.2500004756 4.8924652929 3.5293775307 4.566110259 3.8683274153 4.1668139607 
3.968502546 4.3896916318 4.4351648568 5.3383590233 4.4532983937 5.0381261283 4.2101940787 5.1096065313 4.7499998283 
3.8998433308 4.4269051195 3.5710304849 3.9089862862 3.8170007971 3.9685027977 4.0537804068 5.6303142569 3.9999301675 
3.9685028396 3.9685026719 3.9194806584 3.5585276409 3.1358963644 3.9685027138 3.769926968 4.039811271 4.25 
3.8295020737 3.5716523669 3.968502567 3.9685026614 3.7838645438 3.5716523669 3.5716523669 4.6931539445 3.2430556207 
3.1734284548 4.748556476 3.6848738518 4.3653527252 4.5353577614 3.7402570081 3.558527833 4.412887259 3.9685026483 
3.9685027033 4.2500001585 3.6848736881 3.9685028619 4.1334983456 4.6672536607 3.8613815798 4.1906735959 4.6629908733 
3.9550003908 3.9685027977 3.9685026719 3.9685026941 4.365352851 3.9507185796 3.8902574195 3.9685024622 3.9685026614 
3.8692901467 3.8692898754 3.4725747325 3.8613812298 3.9685027557 3.9685027033 4.2661402708 4.5387656564 3.8692900131 
3.9685028514 3.8613812498 5.237862775 3.9685026719 3.5716523669 3.9685027557 3.9685026299 3.9685026928 3.8773060003 
3.9685026719 3.5716523669 3.9685024844 4.5428014021 4.24814516 3.6575191335 4.3641996025 5.9527530641 3.9827315071 
3.9685026692 4.1642346846 3.9284484931 3.5878276645 4.4553830191 4.5795791336 3.9685027138 3.9685025041 3.4195353773 
3.6975065301 5.5522510529 3.9685024622 3.9685027138 3.9685027557 3.9685024622 4.2933122731 3.7022355381 3.4059316608 
4.5795793818 4.4999988111 4.4036554196 3.9685026299 3.3174821456 4.3653527671 3.9685027138 5.4398919901 3.9723823047 
3.4724397802 3.8692901271 3.6151471401 3.9685026941 4.8456551569 4.0029202606 3.9690363477 4.2876028934 4.3650512022 
3.9685026522 3.9685025041 3.9778134882 5.5001294529 3.5952129261 3.0715243804 3.968502546 4.7029874676 3.9677651061 
3.9685026299 3.9685027557 3.968502588 3.5738523156 3.9685026299 4.7499986658 5.8240870113 3.6459206381 4.6984572982 
3.8310463554 4.6472689199 4.1687072594 4.3475158533 3.5790357274 3.9685025775 3.9685024831 3.9685028291 4.74999893 
4.749998712 3.9685024831 3.9685025775 4.1718747139 4.5324023985 3.9685025041 3.9685027557 3.4627470445 3.9685025041 
3.9685026299 3.8444870079 5.9527548256 4.2413368083 4.3653529768 3.7761483253 3.968502546 4.4397620027 4.4664885452 
5.4645040874 3.968502546 3 3.968502546 4.1642346626 3.5716523669 3.3637123478 5.2768680209 3.9685025434 
3.806131019 3.4510097623 4.0650283747 4.0826786824 4.5777016663 3.8899085234 3.9685024844 3.9685024844 4.8313811671 
5.0087610018 3.9685026522 3.9685026522 3.3285222263 3.9685025015 4.800880198 3.9685026103 4.6200938834 3.9318089149 
5.1932166735 3.9877135218 3.9685026299 4.1642348399 3.9685026928 3.9685025264 4.007959216 3.9685027112 3.968502546 
3.18399489 3.9685027112 4.1890289514 4.1848295163 3.9685024844 3.9685027361 3.8740373964 4.6984391704 3.9685026522 
4.0586263013 4.2200279451 3.9685024844 4.352218456 4.1976904369 3.7753267402 3.96850282 4.9146121036 3.9023373347 
5.0770218209 4.1560885522 4.0287124856 3.9685025264 4.399759284 3.705114506 3.5644894512 3.3360373088 4.4431913857 
3.2359601276 3.2377359268 3.2604661534 4.4260554845 4.2467510443 3.5145074784 3.9685027007 3.9685026522 3.4016785672 
3.9685027112 5.0266044001 3.9685026522 3.5222720388 3.9685027112 3.9685025329 3.9685025683 3.9685025264 3.9685027112 
3.9685025264 4.1642346192 3.9298675772 3.9685027112 5.5031119412 3.2405038185 4.2102563221 4.4541905344 3.9685025434 
3.9685026588 4.3046128264 5.112531214 3.9685026273 3.9685027033 3.9685025264 4.078174451 3.9839576838 4.5428014901 
4.5428013701 4.1642348399 3.7593800113 3.6188078282 3.9685027112 3.0021452422 5.8102077556 3.8877137047 3.9685026732 
3.9685025683 3.9685025775 3.8613811898 3.9685026522 3.9685025159 3.9685026928 3.9685026273 3.968502546 3.9672850042 
3.9337322211 4.3653528221 3.5716523669 3.968502546 4.1297788271 4.0023822918 4.5366978353 4.1642346826 4.3102189238 
3.575829795 4.1642348746 3.9685025683 3.9685027557 4.0166165046 3.968502546 4.1642346842 4.1642346432 3.9685026273 
4.3653528615 3.968502609 3.9685025041 3.9685026299 3.5716523669 3.9685025775 3.9685024622 3.9685026273 4.8456548235 
3.9685026509 3.9685027033 3.9685025775 3.968502609 4.1642346192 3.9685026299 3.7161671463 3.9685026299 4.5428015781 
4.1642346479 3.9434212809 3.9029648803 3.9271485592 4.2095051663 4.0711424133 4.0711422711 3.9685026719 3.7363830745 
4.1741879945 3.861729848 5.3371905581 3.729482698 4.1642343745 5.2361350225 3.9685028619 3.968502546 3.9685028619 
3.9685026273 3.9685026941 3.9690255847 3.9685027361 3.9685026719 3.9685025683 3.9685025683 3.9685026273 3.9685026941 
3.9692002626 3.9685025264 3.9678069823 3.9672849374 4.1642346626 3.9685026719 3.9685025041 3.9685026299 3.9685026719 
3.9685025015 3.9685026522 3.9685027112 4.9332498838 3.7900628713 4.9332496554 3.9685028619 3.9685025054 3.9685028514 
3.9685025054 4.542801162 3.9685025434 3.9685025264 3.9685025264 4.1642341665 3.9685025264 4.1642341665 4.1642344545 
4.5428007779 3.9685028816 4.1642346826 3.9685026522 5.9623739975 3.9685024622 3.9685025775 3.603825747 4.0812135888 
4.3787000942 3.9685024844 3.9685024844 3.5726261178 3.3788675495 5.4999994848 5.0437272373 3.6012776615 3.9685028396 
4.1642343745 4.1642344545 4.5766852572 3.968502546 3.9685025041 3.8373334331 3.9685026719 4.5342982564 4.2660585238 
4.415063528 3.9685025264 3.8375925527 3.8405527503 3.9685025893 4.1503777832 3.5716523669 3.9685027033 3.9209732123 
3.8320817485 3.9685023783 3.9685026299 3.9685024936 3.9778133623 3.9685027557 4.266431153 3.5018961406 4.5468239286 
3.5716523669 3.9685026103 3.9685026522 3.9685026509 3.9685026483 3.9685026692 3.2556741821 3.9685026299 4.3653528326 
3.9685026902 4.7656321164 3.6358351113 3.9685026522 4.260507415 3.91577623 3.9685026522 4.3422098128 3.9471227892 
4.2191286865 3.5347547498 3.5716523669 3.3125939277 3.6511856233 3.9685026941 3.9685026483 4.380577969 3.9685026928 
3.5716523669 3.6680615107 3.9472813165 3.968502567 3.9637287418 3.9685025054 3.9685026902 3.325417472 3.6215902586 
3.8762761144 3.9857052998 3.5716523669 4.1642347082 3.9685026509 3.9685026509 4.6860868982 3.968502588 4.2499999472 
3.9685026103 3.6307087031 3.9685027112 3.4366319399 3.9685025683 3.9685026273 3.9685026941 4.4046843661 3.7839457144 
4.57818141 3.6336927882 3.9685025683 3.257702577 3.6841545344 3.8097748105 3.59951233 3.5037983072 3.9685025224 
3.9685028409 3.9685025224 3.9685025264 3.9685027531 3.9685025264 3.9685025041 4.2102560403 3.9685029038 3.9685025854 
3.9685027112 3.5329788996 3.9685025854 3.6182385223 3.2991473111 3.9685027531 3.6151026226 3.3032352619 4.2661979468 
3.955134407 3.8245757728 3.2461743357 4.9796932806 4.3723142164 4.2527940662 4.3546272283 5.7885494167 4.4700167322 
3.9685026522 3.8790848166 3.9685025854 4.0498714903 4.3167670815 3.9523511364 4.3653529034 3.474126172 5.0917730444 
3.8228589887 3.3934347795 3.610638158 3.742264877 3.9917881182 3.9685027531 4.1377173851 3.8692900642 5.1153364078 
5.1725321019 3.9685029038 3.2430846726 3.9823330369 3.9685027557 4.1597828493 3.9685026299 3.4454759256 3.9685025683 
4.4349500339 3.6038259203 3.6987622973 4.5174892372 3.7351250506 3.9685028816 4.3723140509 4.3205919971 4.2488801382 
3.2969634621 3.9685024006 3.1497248065 3.9935829677 3.9685024006 3.9685026509 3.9685026299 4.4740555447 4.542801162 
3.6736609883 4.2251899044 4.8366131186 3.9723820933 4.2129792312 3.678700505 4.2550086984 4.1572345251 4.4893328965 
3.8692900642 3.9723825981 5.1718750088 3.968502567 3.9685027557 4.4947379229 4.905805389 4.3653529768 3.5585279983 
4.3653529768 4.4174309403 3.2709688738 4.5568576925 3.4400013508 3.968502546 3.9685027557 3.8941813859 3.968502546 
3.7564840162 3.9211220401 4.2627064257 3.947183337 4.2742268078 3.2464075285 3.7031178743 5.0510071999 4.1200488899 
3.9667129248 4.1642346626 4.2522326696 3.8314445234 4.4999997622 3.9685027557 3.8692900642 4.0191813973 3.5716523669 
3.5696731345 3.6746621925 4.5010749124 3.9685025041 3.8345766344 3.7305475885 3.5326561491 4.4556774771 3.9685023783 
3.968502588 5.7496481954 3.9685026299 3.9825423871 4.3858060503 4.7499997226 3.5776673349 3.5687143869 3.9685024622 
3.9685028396 3.968502588 3.3435130938 3.61151246 3.9042910008 3.7372484923 3.9551707262 3.9414850113 3.9685025041 
3.9685026299 4.3653528929 3.9685027557 3.968502567 3.9685028187 5.4999981109 4.7499988639 3.9265672874 4.3076380455 
4.2522322826 4.3594357301 3.3954424699 3.9508423552 3.9897024828 3.8559472877 3.7197941587 4.7499986658 3.5064729344 
4.5174658343 4.1987502073 4.1740060422 3.6914138487 3.9586081531 3.5776673349 3.5790921887 3.5716523669 4.5999742773 
3.5790922778 3.9685025041 3.9170682302 4.0157603229 3.9685026299 3.9685026299 3.5000002642 4.3689957473 3.9743230121 
3.2975094556 5.397688305 3.8370332452 4.5000004954 3.9685025041 4.0853460467 3.9685026522 3.968502609 4.5721677753 
4.6629904486 3 3.5 3.5 3 3.2587448615 3.9908153009 4.0000001849 3.3418673675 
4.8292037375 3.9685026719 3.4383319884 4.7500007134 4.0807667603 3.9749811276 4.5795791336 4.3127914468 4.4973819699 
3.7491119972 3.840548965 3.7696831261 3.4917083065 3.8313760865 3.666939922 4.4102578619 3.0776153333 4.7499994716 
4.4148659487 3.9685026299 3.6525497114 4.5254584029 3.3756858707 4.2500005813 3.9764252616 4.2500005813 4.2500003699 
4.2500003699 3.9627207918 3.968502546 3.4280120706 3.9667088173 3.4941007236 4.365352809 3.8552824398 4.7499996301 
3.5716523669 3.9685026299 4.3653530607 4.5000005945 3.5716523669 3.968502546 4.5491566482 3.6243777227 3.5429975493 
3.3133899724 3.9685027977 4.5861998618 4.2107700691 3.4613140845 4.4591953086 3.8292298566 4.3838361014 4.9055795142 
4.1455713002 3.6456812247 3.6249278702 4.1771580782 3.9685026299 3.3225608627 4.75 4.7499989432 3.4799249512 
4.7499989432 4.3653530607 3.9199440387 3.9795217959 4.75 3.9685029038 4.7499992602 5.5 3.968502588 
3.4724397173 4.2499991545 5.5 4.3626734894 3.8927390861 4.5436375602 3.942434432 5.5121528623 3.9685027531 
3.5716523669 4.3180280021 3.8613809997 3.5757076323 3.8613812238 4.1087964063 4.15846302 3.9097959049 3.9753670525 
3.6433546089 4.2025709402 4.1642345265 4.2500004227 3.869290363 4.1642347186 3.9685026509 3.389425103 4.1642347226 
3.872392897 3.9685026509 4.1642346266 4.5000001585 4.365352851 4.3126478436 3.9685023783 5.7499994187 5.4999993131 
3.2556744168 4.3653528929 5.9527539449 3.9685026299 3.9685026299 4.3190632923 4.5 4.1258001364 4.1156516804 
4.3653528929 4.6259704336 3.9685026273 3.5887196437 4.1469662047 4.0206557271 4.8888903841 4.4503320259 3.8397801059 
3.9685024622 4.0068731108 3.9685026299 3.9685026299 3.8549185123 4.3132352809 4.0068728871 3.9685029654 3.9685024622 
3.9685024622 3.9685029654 3.9685023783 3.9685028816 3.9685023783 3.5008503662 3.9685027977 3.5716523669 3.7508502604 
3.9685026299 3.9685028816 4.7298001987 3.9685023783 3.9685024622 3.5716523669 3.9066801277 3.9354389763 3.9584422686 
3.9175810726 4.25 4.3080003458 3.9470317575 3.4724397173 3.9658211453 5.4933784952 4.1985915463 4.2138163138 
3.8692898125 3.9085113932 4.1642339718 5.1874987417 4.1642347186 4.1771582714 4.5428003299 3.9685026299 3.5279408929 
3.8584151109 4.0448775364 4.0543819011 3.9954099536 3.995565155 4.0499661987 4.0802806243 3.2556744168 4.2864668748 
5.5121528623 4.0281190023 4.2499983091 3.9685027977 4.3653528929 4.2933667553 4.6845012658 3.9685024006 3.9685027361 
3.9685025854 4.8920911227 3.9627035221 5.2605611858 3.9654090041 4.5772263551 3.96850282 3.9679211391 3.9685024176 
3.8841876557 3.9685025854 4.9872842588 3.9685026299 4.3653529375 3.8625733306 3.9685029038 3.9685027531 4.1462555029 
3.861381264 3.9685027531 3.3666203192 3.9685026483 4.0491033913 3.968502588 4.8863387568 3.5716523669 3.9685025854 
4.3804233408 5.1656096541 3.9582126668 4.0373943124 3.8360058304 5.1090120795 4.169571987 4.4261229315 3.6807534223 
3.9685025683 4.4271568484 4.3653530214 3.1945159147 3.1572801114 4.5620051598 4.1642341385 3.4638580001 3.7432254561 
4.2500004227 3.9685025683 3.9685025893 3.9685025867 5.0272250883 4.5501831019 3.8609728129 3.9685025683 3.9006667211 
4.7696015558 3.7873881197 3.9685027531 4.0636036883 4.9938183744 3.1062991116 3.6459197785 3.9685027361 3.9685025015 
3.1364923556 3.9633209854 3.8826390035 3.2433568021 3.7258352287 3.9685025683 3.9031363795 4.5698208406 3.8613809997 
3.8613809997 3.6661104214 4.4236528114 3.9692803109 4.4236528114 4.4657113733 3.4796046459 3.7822474489 4.9154585852 
3.6273483596 3.3049483552 3.2471937562 3.2502433827 3.8976532036 3.8143364374 3.2623446518 4.0659349974 3.9685026522 
3.3173740416 3.1225875367 3.9685025893 3.9694051195 4.2413709066 4.1642343785 3.5716523669 3.4893478647 4.3296417098 
3.9685026522 3.9685026483 3.9491933468 3.9685026273 3.9685027531 3.9685026103 3.9685026483 4.5037632536 3.861381264 
3.9658688446 3.9658690294 4.7500007134 4.6354965113 4.9598868512 4.29098364 3.3002965711 3.9685025867 3.9694049343 
3.5507044955 4.5428006819 3.9632222159 5.5000010304 4.2738001119 3.9685026273 3.7061921175 3.760917133 3.9685027138 
3.9685025683 3.9685025683 4.1503777832 3.9685024006 3.9685025264 5.2358823696 3.964224477 3.9685026103 3.9685025854 
3.9685024006 3.8131814169 3.9582417466 4.0000002114 3.968502588 3.9685026692 3.9685024622 5.5000010304 4.7500006341 
4.0254251051 3.9685025893 3.9685027112 3.3604909108 3.5000002147 5.1070516258 4.7500006341 3.968502546 4.2500002114 
3.8613810297 4.4236539703 4.4236539703 3.9225423934 3.9685026719 4.2500002114 3.7555260635 3.5716523669 3.2698808413 
3.456442597 4.3653529375 4.423653158 3.9135601234 4.1450021979 4.5428006819 4.2605908985 3.5716523669 3.9685025854 
3.9685024006 5.0547122836 3.9685029038 4.9872842588 3.382226508 4.8201255094 4.3128794954 4.2401578609 3.5546655717 
4.5710063605 4.5699903134 3.9685025854 4.3699180618 4.9872842588 3.9685027531 4.4236527428 3.9690258514 3.9685027531 
3.9983315439 3.8742193217 3.9716054099 3.9685026103 3.9685025683 4.7425635514 3.9175810726 4.2164256797 3.9690258099 
4 4.8456549329 4.8456548369 3.8613811838 3.2556744462 5.5099131318 3.9685026103 3.9690259359 4.3961434816 
3.5349534154 4.3961433423 3.9685027361 3.9685027531 3.9685025683 4.4227424789 3.9674258392 4.2314056475 3.2359103547 
3.9685026941 3.9685026692 4.1040822661 3.9701264059 3.9685025998 4.2077735789 3.9685025683 3.0953536894 3.9685025683 
3.9685023783 4.2420599447 3.9685026522 3.9685026588 3.3005164681 3.6664597525 4.0649788501 3.9685026273 4.0580221347 
3.9685025683 4.3653528641 3.5716523669 3.3609172679 3.9685025893 3.6352419038 4.1050189506 3.3245950819 3.9685026692 
3.7227799406 4.8246390922 3.8838359963 3.1997929355 3.9685026941 3.9685025683 3.8355992157 3.7187889601 3.7390862326 
5.2332894183 3.3118680264 3.149464801 3.9685025854 3.9010867019 3.0656628919 5.3615307683 4.1534131746 5.0882914998 
5.4985126147 4.6350549356 3.7677005459 3.9685024006 4.2687427835 4.0094276854 5.9813545764 3.4264954421 3.4435920492 
4.5188961733 3.7756663999 3.496588356 3.7702089382 3.9685025015 3.9685024006 3.9685029038 4.6883569824 3.8798911128 
3.9685025854 3.5716523669 3.9685029038 4.1678743667 4.7937695034 3.688775055 3.7852256049 3.9685024622 4.608421786 
4.1231193725 3.5055651727 3.8577534998 5.0612865777 3.4467457569 4.240942866 3.9685025015 3.745080413 3.0780546225 
3.9685026692 3.5716523669 3.9685025683 4.2499995773 3.0923181299 3.2830585124 4.1145970917 3.080175194 3.9849284187 
5.8097113588 3.9232593453 3.3713527695 3.9685025015 4.3653529768 3.8966611037 4.1633234871 4.976006493 3.8754081878 
4.0218759658 3.6037791184 3.3729497162 3.5617646526 3.7814847067 5.2074094166 3.96850282 3.5487651785 3.6315641752 
3.9685025028 4.3653528536 3.2797690916 3.795167803 3.8783758614 3.5702384896 3.6638671518 3.6010277623 4.4522878021 
3.9685025015 3.8613812678 3.9685025683 3.9685025683 3.9685027361 3.8985780934 4.0166165046 3.3719308003 3.5716523669 
3.7724334517 6.1351160959 3.9685026692 3.9685027361 3.6594419571 3.7945585738 5.9380861705 3.3748977716 3.6615311706 
3.7702579429 3.9685024844 5.7235724698 3.5050717454 3.9685024844 3.9685026299 4.3653529375 3.9685026692 3.7230467669 