# vtk DataFile Version 5.1
vtk output
ASCII
DATASET UNSTRUCTURED_GRID
POINTS 9319 double
-0.86317669536 0.52953285166 0.04230547815 -0.8632397353 0.52213079254 0.15778498432 -0.86385002136 0.59310002327 0.12910000086 
-0.86331896545 0.50131102603 0.10058410775 0.30373365791 0 -0.13935715862 -0.85578207996 0.46404509468 0.16921048279 
-0.85649536991 0.45232274749 0.050593925533 -0.85407390292 0.54802389383 -0.015764273083 -0.8577088531 0.59388304931 0.032643696257 
-0.85617419903 0.5823282308 0.22558020123 -0.85626358503 0.51662273669 0.2190947763 -0.85397651143 0.65240314979 0.12360527416 
0.33430079026 1.9712247617 0.34208841192 0.090575741583 0 -0.59738333126 -0.85270908491 0.49129847676 -0.014193934181 
-0.84789038655 0.40431610189 0.12451393634 -0.84818343044 0.65941524594 0.20605710778 -0.84470468495 0.62637234834 0.27223455873 
-0.84804560288 0.65313719693 0.0638772271 -0.84435005188 0.65515003204 0.01535000056 -0.84376544509 0.55185553313 0.29832383469 
-0.84187502861 0.44777503014 0.25920001268 -0.84382734018 0.61769588566 -0.021979282161 -0.83905000687 0.54280004501 -0.08465000391 
-0.83176789584 0.72870916375 0.096515032884 -0.83461396169 0.69902542774 0.24394581143 -0.83760397805 0.42298094193 -0.036047575866 
-0.82744131912 0.36158487001 0.014841428112 -0.83288165069 0.61086774439 -0.073254909203 -0.08587951426 1.0886898273 0.31053011377 
-0.82666662891 0.4555639071 -0.11197205553 -0.82690005302 0.68327503204 0.29165000916 -0.82505787255 0.4259092909 0.31931585168 
-0.82220990261 0.5616876584 0.36835262592 -0.82405004501 0.74675002098 0.21550002098 -0.82097577069 0.32818059979 0.096915533648 
-0.81954061522 0.726741861 0.004809160519 -0.81136177571 0.77943511003 0.13366570542 -0.81927634535 0.52739957286 -0.14439366242 
-0.81251582039 0.73783363764 0.27037856224 -0.82024069681 0.48619287583 0.36376222404 -0.81845006943 0.6365000248 0.35825002193 
-0.81313928849 0.66075370462 -0.092286261838 -0.79973885769 0.27631650466 0.16616760202 0.50040341879 0.50726242938 0.19084545402 
-0.80141059146 0.3494598421 0.32961670783 -0.81269005525 0.57095216692 -0.14339864359 -0.80702505112 0.32110000849 0.25990000963 
-0.80535619625 0.49824939892 0.406728414 -0.80753449097 0.66662474944 0.36001104429 -0.80415000916 0.61060004234 -0.15380001068 
-0.80615714118 0.59880368155 0.40190441271 -0.80235004425 0.57070002556 -0.17675000429 -0.80351631205 0.48291171314 -0.18238852456 
-0.80335700527 0.53657300084 -0.18085415095 -0.79920005798 0.79390006065 0.034700000286 -0.7976000309 0.7829000473 0.24440000057 
-0.80125691405 0.72158058794 -0.065561026441 -0.79580001831 0.38870000839 0.38565001488 -0.79326962228 0.77137359747 -0.029656214762 
-0.78192798011 0.27904928307 -0.058118815076 -0.78562250034 0.26446003966 0.249073285 -0.79025001526 0.35140001774 -0.14700000286 
-0.7903477291 0.45538923258 0.42906666977 -0.7832372711 0.59279166253 -0.19176669247 -0.79296451654 0.26238383118 0.061493269644 
-0.78024808199 0.63891813809 0.42869950187 -0.7883500576 0.74945001602 0.3256000042 -0.78546035049 0.29578471024 0.31440115369 
-0.78690004349 0.82615003586 0.15700000525 -0.78163591581 0.53723216055 0.45557538298 -0.78505005836 0.48835000992 -0.22645001411 
-0.78557226648 0.53041202256 -0.21062418999 -0.78289916992 0.8273243787 0.088194343263 -0.78772902277 0.56427753038 -0.20481744856 
-0.7790500164 0.40399999619 -0.21865000725 -0.76557003158 0.53077455936 -0.24671997049 -0.77985420486 0.81270796058 0.23183609269 
-0.77032492233 0.78917087654 0.29383022933 -0.36297124572 1.2855259326 -0.71713984269 -0.76385686876 0.62879572247 -0.21075817113 
-0.77282969139 0.83970225706 0.14705867211 -0.76447700939 0.68589965185 -0.17614062611 -0.76687014205 0.85374922113 0.12037280212 
-0.76117346889 0.85386882243 0.044498464923 -0.75752084978 0.81474987587 0.28795711654 -0.77062960377 0.31098063974 0.37471589485 
-0.76325001717 0.42305002213 0.46260004044 -0.76065568758 0.48401954495 0.48500278479 -0.75555439131 0.53928258502 0.49476490855 
-0.75943270031 0.70147358439 0.42154034088 -0.77037389392 0.20457537735 0.11108528401 -0.74941606231 0.86118893382 0.19961112451 
-0.75343388316 0.57690895079 -0.24892696586 -0.096202391244 0 -0.44822900245 -0.74638594614 0.75330629401 0.38785125741 
-0.75203738778 0.88043895841 0.50802047025 -0.75432781783 0.19273094733 -0.026304027104 -0.75310001373 0.95155000687 0.527450037 
-0.74925737742 0.60165323311 0.48558355366 -0.75239452965 0.83973909721 0.24549934256 -0.74935731558 0.91698794783 0.56841826671 
-0.75070004463 0.9204000473 0.47150001526 -0.75399301468 0.83921937074 -0.031714530398 -0.75475485099 0.19869522339 0.25429641725 
-0.75381406793 0.24427072113 0.33223947561 -0.74593004963 0.97986741128 0.45044965641 -0.75882096767 0.75876646697 -0.12790529132 
-0.74736424486 0.84705803443 0.54203174681 -0.74440002441 0.89160003662 0.4423500061 -0.28756746707 0.60482842139 -0.88201853703 
-0.74139116101 1.035192765 0.46255317703 -0.74521768141 0.21899775614 -0.13791621528 -0.73986050526 0.7974370818 0.3430064573 
-0.74145745434 0.94649244748 0.42055595776 -0.74220004082 0.2682500124 0.39000000954 -0.74262712773 0.14991022137 0.18350018806 
-0.74072330375 0.83394708052 0.47543578293 -0.73388933635 0.98336445961 0.58221031701 -0.74744468568 0.2840912282 -0.21157826978 
-0.73975928261 0.40549631309 -0.29808796632 -0.7391500473 1.0247750282 0.52590003014 -0.74606210429 0.34939691444 0.45178441236 
-0.73354144769 0.66329079305 0.47381778682 -0.73581272658 0.79874579964 0.51181541976 -0.73695593945 0.84491762217 0.60608038527 
-0.73527364797 1.0405955635 0.41492556831 -0.73677648047 0.89295256932 0.62131083116 -0.73507532623 0.81649825668 -0.11385653411 
-0.73560748957 0.48253460907 -0.30453020274 -0.73013624698 0.95390491363 0.61569356457 -0.73426427609 1.0650553691 0.4945611988 
-0.72764808425 0.19728227479 0.33097073871 -0.73925084832 0.14007679412 0.046809060926 -0.7243354195 1.0013256937 0.36215409855 
-0.72745201464 1.0913296686 0.46753946454 -0.72930002213 0.46430001259 0.51835002899 -0.72334114016 0.55708057036 0.52598774624 
-0.7282500267 0.76875004768 -0.17810001373 -0.72785003185 0.91855006218 0.3841750145 -0.72923491825 0.83536970998 0.29843761063 
-0.72233038316 0.78312295707 0.59698806297 0.1192867177 0 -0.14401108536 -0.72465297163 0.62763626332 -0.26916302302 
-0.722340502 0.87948260506 0.22244712271 -0.72391179934 0.81665065139 0.42058736876 -0.72455005646 1.0890000343 0.38340001106 
-0.7320320547 0.31521343159 -0.28006443759 -0.73527751136 0.73453353576 -0.18839189169 -0.72414090773 1.1056116485 0.42117100329 
-0.73019706218 0.1522727107 -0.089845592834 -0.72096552826 0.86194168762 0.26249259887 -0.71913910999 1.1125988977 0.48951087281 
-0.71864121758 0.87536436815 -0.042943429269 -0.7168688636 0.2237122086 -0.26392335003 -0.72065002918 1.0864750862 0.51767501831 
-0.71370105893 0.49974686325 0.53419599162 -0.72546289033 0.38649941176 0.49452671255 -0.72085978013 0.14745723745 0.27969139597 
-0.7165500164 0.086850005388 0.091650003195 -0.72325168468 0.11567270067 -0.024898957996 0.10513232707 1.2555207235 -0.49727950268 
-0.70966810243 1.1511492853 0.45592013952 -0.71765049366 0.78514044243 0.38385407726 -0.71465001106 1.1401000977 0.37690002918 
-0.71435003281 0.74855003357 0.42369999886 -0.71304438483 0.93178460728 0.67459080826 -0.71843752614 0.28855843939 0.44431668755 
-0.71791377619 0.75926214491 0.51838513078 -0.71175003052 1.0100500107 0.62505002022 -0.71066764141 0.77068182535 0.43119025105 
-0.71100001335 0.82515001297 0.33890001774 -0.70574616226 0.87438036416 0.70181273667 -0.69060562606 0.72488307777 0.60358189114 
-0.71264156124 0.84450837627 0.3757156883 -0.71232971264 0.7537281719 0.48176552244 -0.71657564879 0.80569957479 0.66062474327 
-0.71183140067 1.0531026501 0.3303503878 -0.71698220023 0.7130316714 -0.23213148704 -0.71311419163 0.085717238088 0.17817529035 
-0.70805501691 0.81974347939 0.36839843889 -0.70600004196 0.90905008316 0.039450001717 -0.7080666349 1.1085647706 0.34789269041 
-0.70555005074 1.1569500923 0.35570001602 -0.7052378881 0.32999405719 0.48915165535 -0.70899287644 0.23434565307 0.40645785044 
-0.71012991914 0.83277079112 0.69178447939 -0.69718447826 0.75460468345 0.66525412656 -0.70163908949 0.12392851762 0.30090787536 
-0.70216786581 0.7286873095 0.46696024975 0.021178364716 2.1959724134 0.82228295745 -0.69903401551 0.66979345665 -0.28406768771 
-0.69305839436 0.85628500868 -0.12412652631 -0.7035195207 0.73478422595 0.53278744883 -0.69574290846 1.1910984916 0.42892604356 
-0.69868608986 0.16788053234 0.34014760648 -0.70060967045 0.70302919156 0.47066966262 -0.69925003052 0.36860001087 0.514950037 
-0.70290903534 0.089312272894 -0.091818195644 -0.69626335641 0.12968451356 0.33544063823 -0.69390761097 1.1762408324 0.32952544555 
-0.10239650388 1.3337147854 0.51448350449 -0.70369481896 0.11458041807 -0.15980541264 -0.70482937979 0.09525944451 0.25539612262 
-0.69805002213 0.056100001931 0.045550003648 -0.6963703882 0.80123125279 -0.1937561914 -0.69790005684 0.28050000668 -0.3435500145 
-0.69840612717 0.20041009555 0.37538832571 -0.0092716996406 2.1985402557 0.45718368073 -0.69730005264 0.91745004654 0.15180001259 
-0.69975731944 0.86097671743 0.30000983825 -0.69482456981 0.94383555945 0.31000232256 -0.6964428961 0.84585670413 0.32315605714 
-0.68240359132 0.9655913883 0.29026742987 -0.68912327182 0.89429416474 0.2341163817 -0.69475002289 0.62750000954 0.53155002594 
-0.69320832433 0.42675892897 0.54108336664 -0.69082159726 0.70892698874 0.50582397983 -0.69714845123 0.89138040658 0.32713214564 
-0.68749351481 0.083964073749 0.32479663916 -0.69180002213 0.86920003891 0.31605000496 -0.69170002937 0.99265003204 0.29660000801 
-0.68994416865 0.90838064097 0.72502324292 -0.69209879923 1.2037266137 0.38220519169 -0.70339781617 0.98272420176 0.65816922921 
-0.69140927869 0.90755188676 -0.020533907978 -0.68912022907 0.17436729713 0.37487630704 -0.68567041771 1.2016536521 0.33030883181 
[...]
CELL_DATA 37323
FIELD FieldData 1
color 1 37323 double
3.2828923993 4.157678235 3.2645776644 4.6096122699 4.9853714261 3.1777419261 3.3501443232 3.2976321819 3.4631798774 
3.6082293474 3.2627268729 3.705889886 3.5539301272 3.4600403399 3.6015570102 5.8666425685 3.667144522 3.4383472094 
3.5526241083 3.3202098403 4.7399261139 3.6720152934 3.3889777632 3.5930109887 3.3143295143 4.1419490029 3.3484069337 
6.1586293537 3.7594527558 4.1988888335 3.509635361 3.1523034942 3.6070812169 4.2554656671 3.1817492072 3.4798396689 
3.7063085671 3.2159215172 4.5682489508 4.1695663659 3.7972000443 3.4081335846 4.2141553387 3.1880010752 3.6110683001 
3.9083324553 3.260693632 4.6838856096 3.567414796 3.5713205691 3.4575117159 3.6923190125 3.3530344029 4.5621427538 
3.8233521804 3.4817084668 3.637640739 3.2367290266 4.9282925181 3.70798943 3.1626979344 4.0641820541 3.7411053528 
4.9056408411 3.7242252199 3.2644412084 4.1649736641 4.1751681815 3.3733294107 3.421260445 5.6244875644 3.5299555195 
4.1479885052 4.3078065105 3.437131521 4.7789037917 3.9734070647 3.366584529 3.6508132401 4.1948905393 4.3307296905 
3.5582870588 3.6039642974 4.1993384992 3.8108599272 3.29930225 4.4431839869 3.1681675158 3.3363114055 3.4233287479 
4.6439798875 3.8400238616 3.2479674451 3.6569929913 3.502567203 3.366837679 3.7183684372 3.8468542275 3.3922684758 
4.0645527401 4.3700924158 4.4338185167 3.070005467 3.8167201406 4.0052466554 3.6991713588 3.1678781971 3.144793184 
4.4839138917 4.5843606377 3.1223104328 3.3585046805 3.4652863857 4.155227758 3.2136061967 3.2829879686 3.2542106039 
3.2889893863 3.5670740735 3.9123836529 5.5391398854 4.1525592976 4.0653166266 4.8616463295 5.2642249825 3.4879965578 
3.9925383115 5.6941282924 4.2074498499 4.5276516039 4.9330777784 4.0437914819 4.5264253511 3.046712909 3.3619670329 
3.1899165523 3.3452410501 3.6874967572 3.9226469005 3.8872165347 3.3813857596 4.7311396305 4.6355092341 4.7558426477 
3.0958750606 4.763012343 4.1538126874 4.6571403996 3.9322919975 3.8986171589 4.8725537636 4.3542092192 5.5541072562 
3.0577116224 5.8301519253 3.7157317112 3.5598402525 3.7993374887 3.8637974091 4.2586001561 4.2561251771 4.9443964748 
3.4701295242 4.055117862 4.3908635821 4.0197686401 4.1952445461 3.7475693325 3.7522679182 3.2074260377 3.4559601977 
3.8328758101 3.5342195682 3.8592205674 3.4366189342 3.2441747798 4.5925678507 4.6132983174 3.9922065003 3.8389979073 
3.3122444586 4.1485187894 3.7212582114 3.9568056092 3.7141260081 4.1451879368 3.8200874035 3.1124014706 3.4612322326 
3.672638848 3.6064064269 3.4897581702 3.7205173766 4.7721216041 3.6225941006 4.1098527128 4.1580487954 3.6839589282 
5.2320403354 4.6739066514 3.9321339395 3.08031683 4.2163115285 3.4251985467 4.1417634304 5.3179748682 4.098763364 
3.661673661 4.1590103323 4.031368669 4.7774400512 3.1476606001 3.3577781306 4.6916043263 4.3612999568 4.7114968215 
3.1999868035 3.9532569287 3.1512888863 3.7056609195 3.2853248263 4.1773639664 3.6780386233 3.9474399071 4.2587063805 
4.4455031935 3.7086522428 3.1871445136 3.6953750692 4.2427102035 4.387854383 4.1681865083 3.5643973408 4.0115264786 
4.4298886928 3.9999142076 4.8915191141 3.2220295387 3.6175637955 3.5674397656 3.5055241939 6.2913921268 4.0238193549 
4.0320972051 3.4822245262 3.2978289321 3.5368808598 4.0827275122 3.5882036707 5.033654704 3.5746498157 3.5167543236 
5.0419212159 3.3947990742 3.6967836781 4.0711331334 3.8752459029 3.576492603 4.6802520266 3.8443376099 3.7207049954 
4.1027577945 3.9446743501 3.6776426213 4.0015314137 4.0446615606 4.1461116155 3.2776734936 3.2485761901 4.6240726174 
4.2521794619 4.3871000518 3.6192235313 3.8453307548 3.6062449137 4.6804412046 3.7549504487 3.8370992667 4.5748169138 
3.6691665294 3.5019005591 3.1683946137 4.517566352 4.3994753344 4.4384152688 3.5676752436 4.2462287542 4.1287742296 
4.4542916628 3.8734585261 3.3667455829 3.5841538649 3.8450750763 4.4230085073 3.4202928639 5.8973425722 4.993327961 
3.1793349824 3.5855403536 3.8741831436 5.4989965683 3.7002853762 3.8818386249 3.3738790904 3.2726793563 3.5665137089 
4.9073171536 3.9141866601 3.4732188663 3.2696014384 3.1745417659 4.1958440659 3.7848257042 4.5440746932 3.4121267182 
3.3134556664 5.4187442004 3.1377428591 6.2022012593 3.8516208664 3.8468724124 4.6629871899 4.0566793982 7.1015067547 
3.91311696 3.6352162987 4.1729637939 5.7426860302 3.9083982593 3.7750570193 3.4884282881 3.8111908264 3.7312240896 
4.7607533435 4.7603859522 4.1939103975 3.971549056 3.6274938171 4.1179585476 5.4109539619 3.0888368075 4.3760770758 
3.8610897337 3.8153824096 3.295447635 5.7653466973 3.6810276593 5.1072407483 3.1736277025 3.7633976313 4.10546036 
3.3952151825 3.6912928275 3.3372077497 3.8679388158 3.9338707645 3.9184159381 3.430671204 4.1043798879 5.7862442536 
4.5532100915 3.531717064 4.4701482505 3.3622537126 3.3562280408 3.4581674314 3.9895567717 3.293668343 3.1587226099 
5.1413563651 3.2333448762 3.9150179456 4.3700327686 4.5556327697 3.5573876382 4.9147646005 3.9996434721 4.0811363647 
3.9601743606 4.9785762113 3.5485484673 3.5140536639 3.3102664924 5.0257555738 3.4726378767 3.2166601358 4.3110556505 
3.6863873282 3.9929108182 4.0166600484 3.2773299233 5.6009029326 3.2875973714 4.3660306545 3.4560845696 3.4206348423 
3.1880793256 3.2428274708 5.6052637219 3.5992370921 3.8891234776 3.4698330402 4.6362525406 3.0556898076 4.4774976239 
3.3268345801 3.7771149826 3.995369693 4.6589716328 4.1250635657 4.8126092286 4.2091442094 3.6566542396 4.2192475003 
3.845691451 4.5887815264 4.2399384015 3.2095415302 3.790983688 4.065615694 3.5488240432 4.0986939303 3.2251115215 
3.9937247503 3.5394078405 3.5218421503 4.1908653249 3.7869237033 3.7891712478 3.4011007484 3.4588952301 3.3228409127 
4.3903491829 4.7702311588 3.5916896827 4.041585433 3.4869562087 3.9942311081 4.9515806566 3.4302785661 3.5220168351 
3.970019399 4.6435476635 4.4381513874 3.2380843726 4.2261535275 3.928161632 4.2601688674 3.6708876865 4.2601520079 
3.3674019405 4.321409429 3.8152690194 3.3342178236 3.6405125692 4.125273732 3.0554025655 4.2561067536 3.3178621208 
3.9401174926 6.7296411714 3.2321534104 3.5955103902 4.51385903 3.483671958 3.4833953196 4.2881430144 3.8243860056 
4.048951935 4.7295315677 3.972278783 4.5653182271 3.555612336 3.6078716678 3.6077071468 4.046282431 4.6062772461 
3.7852249758 4.3589835006 4.0069949592 3.0392844424 4.681320598 4.1202227141 4.4636979209 3.1993721012 3.7682197167 
3.6378312806 3.8312391211 4.5705862884 4.56307052 5.5319638847 3.8192752816 3.8978920406 4.879582702 4.1475876199 
3.3325562094 3.6929661245 3.5989969628 5.4627409345 4.1841174903 3.8486631917 3.4491386563 3.9126540195 5.1912631831 
5.2753539262 4.7689550549 3.746555197 3.2795802027 3.8652019212 3.2476307838 3.7517942992 5.630568963 3.671476217 
4.0401488063 3.6939321705 5.5912561876 3.9014656254 4.1222833318 3.9435239389 4.1029097 3.5061591024 3.8812046153 
4.9682648687 4.3088171349 3.9443241873 3.8438265978 3.5590723761 3.8961841341 3.883751617 4.1004146231 4.1411785112 
4.6116416705 3.1589130832 3.7461376108 3.9722671553 3.7368449206 4.2330669329 5.1958610696 3.9840505787 3.4227171664 
3.5508145659 3.7963485906 3.7750034435 3.6405743979 3.2803999811 4.1370934762 4.2373528544 3.2864548516 4.9048838787 
4.3736655365 4.1001704412 4.1536137829 4.6404303392 5.2911660274 3.6449217946 5.6540500849 3.8488367362 4.8495696741 
4.1192720044 3.4711748193 3.8224366341 3.325303616 3.1479696662 3.2843510403 4.5343789881 3.7561219281 4.4985453409 
3.1301183635 3.7846176639 4.5615339084 3.5417647947 4.9127946661 3.3277357293 3.5587378719 3.560895913 6.0788442848 
4.2393117571 3.2335220538 5.2840416359 3.3440618688 3.5636657255 3.9785987956 4.2773187 4.4273060765 4.4167535093 
4.2141297495 4.1057888298 3.7847920003 3.827298273 4.1382782497 3.170574055 3.3638612924 4.9783721837 4.3677169031 
4.3840579483 3.9106485547 5.0606084311 4.0376466211 4.2838350078 6.3116656121 3.4679585291 3.6708328641 3.2945552526 
5.5949790002 3.9701706581 3.2777337234 4.2054917546 4.1156572977 3.9157122846 3.8773983078 3.5710272366 3.5970792286 
4.9133528951 3.8494940815 3.7647501177 4.1943800397 3.6972946193 3.7342085438 4.0477627421 4.3692949976 5.0153695302 
4.3052038584 3.9873468748 3.9064405266 3.7648646556 3.806831362 3.6608575591 4.1754984582 3.6593033293 4.1246868102 
3.6238483672 4.3147850082 4.8320552001 4.1408053352 3.5357727374 3.8233869134 4.4408037546 3.7057054247 3.3416899765 
3.9887020787 4.4672969864 4.0982372056 5.2549802632 4.0435291896 4.3893170312 3.8502993992 3.9209789704 3.7628887424 
3.9850032691 3.3714100846 4.0748147517 4.3809440753 3.4893856231 3.8028792053 3.6632937977 4.692920941 3.8571407041 
4.5979885885 3.2774222771 3.9222409468 4.0953045812 4.5350126013 4.3619006871 3.335148355 4.4994911039 4.2091530952 
3.9476322433 4.8578764143 4.179909011 5.0503732873 4.7896260231 3.2420652403 3.615132639 4.5630480737 3.8465217857 
3.8589650597 4.117270216 4.541041252 3.8131383157 3.5157800791 5.482958184 4.0386043437 5.0856045419 3.9235406941 
3.9388475411 4.1583590854 3.9067762171 4.3694703476 4.0768021708 4.4842405796 4.5979917507 3.1580327575 3.8518766628 
3.54772155 4.0052300841 3.2278715766 3.2595698325 4.1651763006 3.5859943306 7.2219601102 3.3476043949 5.7725266205 
5.5338201364 5.5374762727 3.4593041067 4.9236071308 4.7198499543 4.0634266871 3.31266264 3.9203870603 5.4445708943 
3.7488244984 4.0082538195 3.7222606792 3.6516867712 5.5332826125 3.5964953883 3.9842772514 3.9312406208 3.2751867723 
3.41138302 3.5007771524 3.8307029298 3.5689172261 5.2117352151 3.5590130196 5.103432393 5.9889739628 3.3073997934 
4.5880992212 3.4491886519 3.5036467193 3.9236079167 3.8139042572 3.3125424564 3.7377039007 4.5190760291 5.182259165 
3.4746308679 3.5302911484 3.3524907445 3.4241227216 4.1704886433 3.696028754 3.2350577469 3.357459057 3.8934007103 
3.8081777567 4.227278392 3.7108850709 3.5298667426 4.7295316489 3.5901466381 3.7292915009 4.2170335569 5.0309378562 
4.6407091684 4.0240426338 4.0035334112 3.9914456304 3.1255782344 3.8944233799 4.4673427793 3.5277152537 3.8545612297 
6.3368213687 3.1517333809 3.7592180876 3.271431226 4.9542864879 5.1931468012 3.9051611043 3.8262232863 5.5394196395 
4.6196343867 3.7050789853 4.5447858508 4.3025530723 4.1063106379 4.0888046599 4.866484382 3.3624467253 3.540007465 
4.9492019365 6.3608132383 4.0130655571 3.1357744818 3.1316681888 4.5269743237 3.3031254226 3.3922635188 3.198725218 
3.3985636512 3.3888694516 4.7370938754 4.1177021506 3.6433132701 4.7055094501 3.7536482833 3.8682564559 4.3879582351 
3.4789057109 3.2681208398 3.8159254251 3.4908966594 3.3075896799 3.641076901 3.8275069288 3.7433913084 3.4829559378 
3.9020266643 4.5349852851 3.326485741 4.1636276113 3.3926738898 4.4403652333 3.9101202057 3.8798194206 3.5496576776 
4.1080668254 5.675922859 4.0264612402 4.0146081749 6.4020617757 3.6266990625 3.8840871336 3.708005192 4.212949067 
4.1601908215 4.969270711 3.5881835133 4.053835161 3.7325011208 3.9723024876 4.2944657726 3.2107971323 4.6283418071 
4.3243827965 5.1986058955 4.005029702 6.1426161498 4.3023029972 3.6285745448 4.561709761 3.0890326603 5.0500060057 
3.8105834104 4.5324263279 3.4279020255 3.7831771574 3.390308027 3.7083144249 3.93939812 5.0188903868 4.7117380527 
4.1227333239 4.1460289792 3.5240229718 3.4011965118 3.8120672169 4.5488687861 6.7459829979 3.4944108006 3.5231598469 
3.4472584788 3.7650206923 4.5050518084 4.4486162129 5.5430056273 3.6096224275 3.4773378634 3.4512377269 3.5434569182 
3.3826854196 3.3983223292 3.3907779302 4.4095402984 3.6595516255 3.6042387014 4.1455715175 3.56263101 3.4453502524 
3.5025674841 4.6684270053 3.3336589594 3.2342192253 3.3763275266 4.2829131056 3.5866054274 4.0068390892 3.3972905572 
3.1083697558 3.4047158075 4.6897908794 4.5854488748 3.9433243745 3.7156188169 3.639435632 3.3155435143 4.0425027274 
3.4843490652 4.3385848947 4.0779071922 3.4147676271 3.8488380774 5.7919320257 4.653690377 3.8232191638 4.7314460203 
4.1807591561 4.8945655772 3.6567445851 3.2506264455 3.339225923 3.7154514293 4.4617877503 3.7106728515 4.2403339269 
3.7059109317 3.4005628039 4.2870666174 7.1204271033 3.4725282345 4.4231874554 3.8842076755 4.8048380792 3.5106657237 
3.8464203194 3.3160305019 3.7952805278 3.1082302373 3.5148072911 5.6916115485 3.4662936891 4.1271499808 3.2978042457 
3.1467221271 3.2393808998 3.2665107422 3.163406948 3.496612555 3.2896996777 3.8348752755 3.1570129539 3.3743397337 
3.428947522 5.0531443308 3.3726362154 3.2382292287 3.2847419825 3.1932761098 3.6058631803 3.4899587805 3.9202559967 
3.4271566752 3.3824558834 4.3190295822 4.6994141221 4.6088629079 3.9981211859 3.2585876614 3.4566932069 3.181837181 
3.0993775088 3.7313635282 3.7468883093 3.8299191118 3.0704273322 3.740842777 3.8671823824 3.1998551902 4.2368948558 
5.6010291788 3.5477375932 4.2760236228 4.3573249137 3.2253717579 3.2381063337 3.2417935116 4.5911865473 3.2195033265 
3.6926656169 3.2927447542 3.3109985334 3.2253843798 3.5130973289 3.4330115656 3.4807764374 3.3964676483 3.5331887153 
3.1003879343 3.3002173036 3.2069354922 3.4949919121 3.9300945228 3.9701568143 3.9608128961 4.5340445098 3.7812890005 
3.5049373908 3.6675466959 3.5286308556 3.3988624256 4.026960381 3.1508453469 4.2577747893 3.6648928068 4.9111760097 
3.1169552844 3.6643873028 3.2330679427 3.1194652792 3.7501777961 3.144496181 3.7067052929 3.8415496133 3.8467936547 
3.7031752163 3.266634581 3.1958497777 4.1787783741 3.0909082553 3.2150515411 3.5309304445 3.3450943989 3.3271531155 
3.7082504239 3.5969361489 4.3740149401 3.1866482188 3.1140137234 3.3404526688 3.2408639816 3.6469094758 3.1576825298 
3.1976474035 3.1882092856 3.1202887355 3.9047979687 3.5193420423 3.2844106291 3.2421069317 4.079353034 4.5521209942 
3.6122807521 4.1388202167 3.0889761397 3.598010904 3.3915008041 3.5850621061 4.4572515271 3.1894938362 3.3729699999 
3.5709744369 3.926595925 4.2555309952 3.5549330318 3.1258726011 3.2736888563 3.0719454095 3.3115659287 3.1698970199 
3.0912591171 3.1631733287 3.1777545635 4.2203959017 4.3385611487 3.5304850554 3.3273948644 3.3184561739 3.7867229183 
3.3339589845 3.2450358942 3.92236001 3.3413632449 5.1648406179 3.7726290328 6.6593384682 4.4063264912 4.0813370918 
5.0068097908 3.5905861005 4.2582826594 4.1313433727 3.1694170538 3.3128930925 3.537700906 3.5649610582 3.5825527837 
3.0744304861 3.3626193229 3.551224946 3.7388554133 3.9780668641 3.0948982907 3.2050674317 3.7232912781 4.1967959069 
5.0640409204 3.8933311207 5.3376013271 3.3240435033 3.7200718748 3.4148890133 3.3030207848 3.6280201428 3.6631781037 
4.4586143985 3.5074164989 3.3482845828 3.4420185122 3.238131828 3.5743901721 3.4607680626 3.1194693025 3.9432070645 
3.4218113068 3.3952907058 3.3507849014 3.2646725956 3.3324663005 3.3885803377 3.760185569 4.1517695847 3.138833337 
3.3142628383 3.3318303188 3.3361122082 3.976964877 3.446514896 3.3795059104 4.5145870399 3.3974972917 4.332127177 
3.4494017338 4.2349295705 3.6762518436 3.5861941979 3.2694913983 4.1702505765 3.5606403799 3.8568709924 5.4240734444 
4.1669689701 3.1285987974 5.5093345017 3.1281644938 3.3767339485 3.2353111563 3.3955980993 4.0248204221 3.5207241171 
3.7567229829 3.5181729856 3.7018729276 4.4675794747 3.4024282244 3.5496438806 3.4202427221 3.3185297712 3.6430584617 
3.7957860858 5.6282718393 3.5272569565 3.9791230742 3.9696713326 4.4523881288 3.5451269835 3.5162624976 4.8499556426 
3.356915254 3.5604266238 3.8977588104 3.4289938806 4.5816191939 5.1409997384 4.218064628 3.5657301894 3.2632221622 
3.307990971 3.3479224071 3.9494519065 4.1495102445 3.2796863914 4.3866327021 3.2411446782 3.5291000902 3.5260719905 
4.0204253405 4.4533580356 3.4373861988 3.966632034 4.2459097342 3.6797378932 3.143980097 3.4611466577 3.5188584664 
3.3267802865 3.6181765017 3.230917224 3.417481726 3.9598924356 3.3518676905 3.9234537883 3.6815901933 3.8980621603 
4.2621015006 4.2296287528 3.1093544257 3.4845812586 4.2413687961 3.2731674758 3.187421967 3.2872387164 4.6374116384 
3.6792049353 3.4070568154 3.3736983746 3.9306719629 5.1181154093 4.2746766743 3.7303586424 3.3337817262 3.5882941391 
4.8913761559 3.7925672209 4.0942373003 3.9519437578 4.1827423576 3.6104959218 3.6328124526 3.4945242074 3.2592820366 
3.8580827534 3.2111967153 3.1600250439 3.5820386263 3.4058803247 3.3335012847 3.7636300503 3.6935349134 3.3360935411 
3.6179128589 3.04008294 3.2558120628 3.1413662404 3.8651056763 4.1489879763 3.4036025529 3.6138354059 3.3251329422 
3.1747097463 3.5563618702 3.1230289537 3.574879863 3.2102769953 3.1370182959 4.1485650614 3.3726773347 3.9295743533 
3.7115343464 3.2379248104 3.3905446621 3.4648156578 4.8142221297 4.6949536642 3.7384057149 3.7939327613 3.7654481799 
3.4144290385 4.145188629 3.4252356182 3.6158705656 3.1973457352 3.9889602856 3.2922473074 3.5084660126 4.4116492477 
3.5210009977 3.1994216323 3.3203147941 3.9844027514 3.4304220268 4.7518944412 3.4084362691 3.7202600107 3.4795945245 
3.4946532025 4.9592216662 3.3953374343 3.8191598343 3.2965773741 3.6234562006 3.033305208 3.5726025534 3.9572307834 
4.6994636812 3.7928486118 3.6110968021 3.1425343214 3.5834069351 3.1982662417 3.4141031954 3.1182845145 3.3263507472 
3.6310963857 3.1226980372 3.3992943803 3.6674126584 4.0839649715 3.8233443885 3.2428080724 3.3989590344 4.2871841436 
4.1728981262 3.2731955498 3.3972678727 4.9844565659 3.5554484852 4.0093761402 3.7801507026 3.8442496894 5.1604039669 
3.058477334 3.4427561823 3.511744348 3.2053710117 3.5847355867 3.9593743353 3.5290270959 3.6341554688 3.746915715 
4.0967237554 4.0650665986 3.4156709888 3.4254763557 3.7851558323 3.2750433762 3.1016695254 4.0994007686 4.369178152 
5.1319780292 3.7142023187 4.2317335914 4.2023056562 3.8951023228 3.5894295229 3.7453481178 3.0865479329 3.6167215026 
3.4652925989 4.9997960929 3.2762385577 3.2859826976 3.7469722676 3.8351331204 3.5869424216 4.2244554687 4.0878505111 
3.5165064766 4.0165694692 3.4610388478 3.2301526213 3.264750475 4.0051707045 4.187687591 3.2874762769 3.6068363043 
3.3555443296 3.3435584956 3.832334585 3.7303661299 3.035102077 4.6717180132 3.7384583298 4.6516849805 3.2871086033 
3.2800131066 3.5758942521 3.0950110792 3.3243075426 3.2864191286 3.7838900862 3.5088296687 5.226959625 3.8297455887 
3.6230390294 4.3624057206 3.6279212261 3.0441179346 3.4795073083 3.6390529312 4.019027028 3.0752655835 3.2774170767 
3.3223411998 3.4340566497 3.9604088054 3.1127392048 3.5197394525 3.7530881068 4.020390384 3.7218807373 4.0098981929 
3.2700055787 4.1602004531 3.610438657 3.9906734688 3.7519001551 3.7142001206 3.5872824809 3.1742044784 3.2136021207 
3.8316144613 3.7040054546 3.40080488 3.9823433252 3.4835587102 3.4242615227 3.641912433 3.8401430259 3.4383515763 
3.3041618981 3.4817282661 3.3964532198 3.2956820548 3.8117045658 3.9356062065 3.6595690667 4.6321142976 3.2848873368 
3.6880597412 3.4151883256 3.2693735953 3.7001247195 3.3796581708 3.0753536908 4.0344662395 5.1047716919 4.4149920742 
3.3840779317 3.5585143465 3.6031726512 3.5837298496 5.6829118564 3.59023536 4.7643790969 4.7549853776 3.8037757755 
4.4724954149 3.6311886033 4.5180953615 3.3457626452 3.2646787833 4.1432959251 3.6192749939 3.2491573334 4.0876603439 
3.3061664104 3.4589651001 3.3232537972 3.4652246679 3.5322161108 3.6901967872 3.4160078075 3.2316498034 3.2720743277 
3.4139691446 3.5747832948 3.6859988283 3.3421557315 3.3036556807 3.1634302395 3.4193769739 4.3841858839 3.7479812045 
4.9363775008 3.2880304755 3.1341314316 3.0650984659 3.2105550627 3.6302185555 6.8721430998 3.0906338123 3.5188011697 
3.6378846236 4.9862093188 4.561956319 3.4172882431 3.510220457 3.2648624692 3.486210998 3.6338610595 3.4311671913 
3.6909569288 3.9133075536 3.3826310199 3.362549557 3.0870745104 3.4211083707 3.4027688946 4.2707624132 3.5661649623 
3.2028919349 3.6817602287 3.6344930473 4.4972562264 3.7076755383 3.6175602744 3.1511257695 3.6719172567 3.2316802367 
3.3356902131 3.2353408693 3.300038724 3.2765754128 4.0020300765 3.280935524 4.0085555882 3.1911495219 4.6809930811 
3.4289462944 3.5387672572 3.0842728081 3.4305595398 4.0256102191 3.1893164002 3.6370558445 3.5552014045 3.5548986156 