# vtk DataFile Version 5.1
vtk output
ASCII
DATASET UNSTRUCTURED_GRID
POINTS 2793 double
-0.53325 1.54130555 0.417 -0.53325 1.64130555 0.417 -0.53325 1.54130555 -0.417 
-0.53325 1.64130555 -0.417 -0.51675 0.0068056 0.51675 -0.51675 0.0403055 0.51675 
-0.51675 0.0068056 -0.51675 -0.51675 0.0403055 -0.51675 -0.48325 0.07380545 0.48325 
-0.48325 1.64130555 0.48325 -0.48325 1.54130555 0.417 -0.48325 1.64130555 0.417 
-0.48325 0.07380545 0.36675 -0.48325 1.54130555 0.36675 -0.48325 0.07380545 -0.36675 
-0.48325 1.54130555 -0.36675 -0.48325 1.54130555 -0.417 -0.48325 1.64130555 -0.417 
-0.48325 0.07380545 -0.48325 -0.48325 1.64130555 -0.48325 -0.44975 1.64130555 0.44975 
-0.44975 1.70780555 0.44975 -0.44975 1.64130555 -0.44975 -0.44975 1.70780555 -0.44975 
-0.43325 0.07380545 0.36675 -0.43325 1.54130555 0.36675 -0.43325 0.12415545 0.31682485 
-0.43325 0.39095555 0.31682485 -0.43325 0.4908222 0.31682485 -0.43325 0.75762225 0.31682485 
-0.43325 0.8574889 0.31682485 -0.43325 1.12428885 0.31682485 -0.43325 1.22415555 0.31682485 
-0.43325 1.3325556 0.31682485 -0.43325 1.38255555 0.31682485 -0.43325 1.49095555 0.31682485 
-0.43325 1.22415555 0.26122485 -0.43325 1.3325556 0.26122485 -0.43325 1.38255555 0.26122485 
-0.43325 1.49095555 0.26122485 -0.43325 1.22415555 0.2112248 -0.43325 1.3325556 0.2112248 
-0.43325 1.38255555 0.2112248 -0.43325 1.49095555 0.2112248 -0.43325 1.22415555 0.15562485 
-0.43325 1.3325556 0.15562485 -0.43325 1.38255555 0.15562485 -0.43325 1.49095555 0.15562485 
-0.43325 1.22415555 0.10562485 -0.43325 1.3325556 0.10562485 -0.43325 1.38255555 0.10562485 
-0.43325 1.4907248865 0.10615973594 -0.43325 0.12415545 0.05002485 -0.43325 0.39095555 0.05002485 
-0.43325 0.4908222 0.05002485 -0.43325 0.75762225 0.05002485 -0.43325 0.8574889 0.05002485 
-0.43325 1.12428885 0.05002485 -0.43325 1.22415555 0.05002485 -0.43325 1.3325556 0.05002485 
-0.43325 1.38255555 0.05002485 -0.43325 1.49095555 0.05002485 -0.43325 0.12415545 -0.05002485 
-0.43325 0.39095555 -0.05002485 -0.43325 0.4908222 -0.05002485 -0.43325 0.75762225 -0.05002485 
-0.43325 0.8574889 -0.05002485 -0.43325 1.12428885 -0.05002485 -0.43325 1.22415555 -0.05002485 
-0.43325 1.3325556 -0.05002485 -0.43325 1.38255555 -0.05002485 -0.43325 1.49095555 -0.05002485 
-0.43325 1.22415555 -0.10562485 -0.43325 1.3325556 -0.10562485 -0.43325 1.38255555 -0.10562485 
-0.43325 1.49095555 -0.10562485 -0.43325 1.22415555 -0.1556248 -0.43325 1.3325556 -0.1556248 
-0.43325 1.38255555 -0.1556248 -0.43325 1.49095555 -0.1556248 -0.43325 1.22415555 -0.2112248 
-0.43325 1.3325556 -0.2112248 -0.43325 1.38255555 -0.2112248 -0.43325 1.49095555 -0.2112248 
-0.43325 1.22415555 -0.2612248 -0.43325 1.3325556 -0.2612248 -0.43325 1.38255555 -0.2612248 
-0.43325 1.49095555 -0.2612248 -0.43325 0.12415545 -0.31682485 -0.43325 0.39095555 -0.31682485 
-0.43325 0.4908222 -0.31682485 -0.43325 0.75762225 -0.31682485 -0.43325 0.8574889 -0.31682485 
-0.43325 1.12428885 -0.31682485 -0.43325 1.22415555 -0.31682485 -0.43325 1.3325556 -0.31682485 
-0.43325 1.38255555 -0.31682485 -0.43325 1.49095555 -0.31682485 -0.43325 0.07380545 -0.36675 
-0.43325 1.54130555 -0.36675 -0.417 1.5417813875 0.53325 -0.417 1.64130555 0.53325 
-0.417 1.54130555 0.48325 -0.417 1.64130555 0.48325 -0.417 1.54130555 -0.48325 
-0.417 1.64130555 -0.48325 -0.417 1.54130555 -0.53325 -0.417 1.64130555 -0.53325 
-0.41623545 1.70780555 0.41623545 -0.41623545 1.77430555 0.41623545 -0.41623545 1.70780555 -0.41623545 
-0.41623545 1.77430555 -0.41623545 -0.38324995 0.12415545 0.31682485 -0.38324995 0.39095555 0.31682485 
-0.38324995 0.4908222 0.31682485 -0.38324995 0.75762225 0.31682485 -0.38324995 0.8574889 0.31682485 
-0.38324995 1.12428885 0.31682485 -0.38324995 1.22415555 0.31682485 -0.38324995 1.3325556 0.31682485 
-0.38324995 1.38255555 0.31682485 -0.38324995 1.4902608695 0.31682485 -0.38324995 1.22415555 0.26122485 
-0.38324995 1.3325556 0.26122485 -0.38324995 1.38255555 0.26122485 -0.38324995 1.49095555 0.26122485 
-0.38324995 1.22415555 0.2112248 -0.38324995 1.3325556 0.2112248 -0.38324995 1.3835102321 0.2112248 
-0.38324995 1.49095555 0.2112248 -0.38324995 1.22415555 0.15562485 -0.38324995 1.3325556 0.15562485 
-0.38324995 1.38255555 0.15562485 -0.38324995 1.49095555 0.15562485 -0.38324995 1.22415555 0.10444710358 
-0.38324995 1.3325556 0.10562485 -0.38324995 1.38255555 0.10562485 -0.38324995 1.4895008466 0.10562485 
-0.38324995 0.12415545 0.05002485 -0.38324995 0.39095555 0.05002485 -0.38324995 0.4908222 0.05002485 
-0.38324995 0.75762225 0.05002485 -0.38324995 0.8574889 0.05002485 -0.38324995 1.12428885 0.05002485 
-0.38324995 1.22415555 0.05002485 -0.38324995 1.3325556 0.05002485 -0.38324995 1.38255555 0.05002485 
-0.38324995 1.49095555 0.05002485 -0.38324995 0.12415545 -0.05002485 -0.38324995 0.39095555 -0.05002485 
-0.38324995 0.4908222 -0.05002485 -0.38324995 0.75762225 -0.05002485 -0.38324995 0.8574889 -0.05002485 
-0.38324995 1.12428885 -0.05002485 -0.38324995 1.22415555 -0.05002485 -0.38324995 1.3325556 -0.05002485 
-0.38324995 1.38255555 -0.05002485 -0.38324995 1.49095555 -0.05002485 -0.38324995 1.22415555 -0.10562485 
-0.38324995 1.3325556 -0.10562485 -0.38324995 1.38255555 -0.10562485 -0.38324995 1.49095555 -0.10562485 
-0.38324995 1.22415555 -0.1556248 -0.38324995 1.3325556 -0.1556248 -0.38324995 1.38255555 -0.1556248 
-0.38324995 1.49095555 -0.1556248 -0.38324995 1.22415555 -0.2112248 -0.38324995 1.3325556 -0.2112248 
-0.38324995 1.38255555 -0.2112248 -0.38324995 1.49095555 -0.2112248 -0.38324995 1.22415555 -0.2612248 
-0.38324995 1.3325556 -0.2612248 -0.38324995 1.38255555 -0.2612248 -0.38324995 1.49095555 -0.2612248 
-0.38324995 0.12415545 -0.31682485 -0.38324995 0.39095555 -0.31682485 -0.38324995 0.4908222 -0.31682485 
-0.38324995 0.75762225 -0.31682485 -0.38324995 0.8574889 -0.31682485 -0.38324995 1.12428885 -0.31682485 
-0.38324995 1.22415555 -0.31682485 -0.38324995 1.3325556 -0.31682485 -0.38324995 1.38255555 -0.31682485 
-0.38324995 1.49095555 -0.31682485 -0.36675 0.07380545 0.48325 -0.36675 1.54130555 0.48325 
-0.36675 0.07380545 0.43325 -0.36675 1.54130555 0.43325 -0.36675 0.07380545 -0.43325 
-0.36675 1.54130555 -0.43325 -0.36675 0.07380545 -0.48325 -0.36675 1.54130555 -0.48325 
-0.31682485 0.12415545 0.43325 -0.31682485 0.39095555 0.43325 -0.31682485 0.4908222 0.43325 
-0.31682485 0.75762225 0.43325 -0.31682485 0.8574889 0.43325 -0.31682485 1.12428885 0.43325 
-0.31682485 1.22415555 0.43325 -0.31682485 1.3325556 0.43325 -0.31682485 1.38255555 0.43325 
-0.31682485 1.49095555 0.43325 -0.31682485 0.12415545 0.38324995 -0.31682485 0.39095555 0.38324995 
-0.31682485 0.4908222 0.38324995 -0.31682485 0.75762225 0.38324995 -0.31682485 0.8574889 0.38324995 
-0.31682485 1.12428885 0.38324995 -0.31682485 1.22415555 0.38324995 -0.31682485 1.3325556 0.38324995 
-0.31682485 1.3840681735 0.38324995 -0.31682485 1.4903367287 0.38324995 -0.31682485 0.12415545 -0.38324995 
-0.31682485 0.39095555 -0.38324995 -0.31682485 0.4908222 -0.38324995 -0.31682485 0.75762225 -0.38324995 
-0.31682485 0.8574889 -0.38324995 -0.31682485 1.12428885 -0.38324995 -0.31682485 1.22415555 -0.38324995 
-0.31682485 1.3325556 -0.38324995 -0.31682485 1.38255555 -0.38324995 -0.31682485 1.49095555 -0.38324995 
-0.31682485 0.12415545 -0.43325 -0.31682485 0.39095555 -0.43325 -0.31682485 0.4908222 -0.43325 
-0.31682485 0.75762225 -0.43325 -0.31682485 0.8574889 -0.43325 -0.31682485 1.12428885 -0.43325 
-0.31682485 1.22415555 -0.43325 -0.31682485 1.3325556 -0.43325 -0.31682485 1.38255555 -0.43325 
-0.31682485 1.49095555 -0.43325 -0.26122485 1.22415555 -0.38324995 -0.26122485 1.3325556 -0.38324995 
-0.26122485 1.38255555 -0.38324995 -0.26122485 1.49095555 -0.38324995 -0.26122485 1.22415555 -0.43325 
-0.26122485 1.3325556 -0.43325 -0.26122485 1.38255555 -0.43325 -0.26122485 1.49095555 -0.43325 
-0.2612248 1.22415555 0.43325 -0.2612248 1.3325556 0.43325 -0.2612248 1.38255555 0.43325 
-0.2612248 1.49095555 0.43325 -0.2612248 1.22415555 0.38324995 -0.2612248 1.3325556 0.38324995 
-0.2612248 1.38255555 0.38324995 -0.2612248 1.49095555 0.38324995 -0.2112248 1.22415555 0.43325 
-0.2112248 1.3325556 0.43325 -0.2112248 1.38255555 0.43325 -0.2112248 1.49095555 0.43325 
-0.20982352695 1.2247420171 0.38324995 -0.2112248 1.3325556 0.38324995 -0.2112248 1.38255555 0.38324995 
-0.2112248 1.4902188851 0.38324995 -0.2112248 1.22415555 -0.38324995 -0.2112248 1.3325556 -0.38324995 
-0.2112248 1.38255555 -0.38324995 -0.2112248 1.49095555 -0.38324995 -0.2112248 1.22415555 -0.43325 
-0.2112248 1.3325556 -0.43325 -0.2112248 1.38255555 -0.43325 -0.2112248 1.49095555 -0.43325 
-0.15562485 1.22415555 -0.38324995 -0.15562485 1.3324490238 -0.38324995 -0.15562485 1.38255555 -0.38324995 
-0.15697502392 1.49095555 -0.38324995 -0.15562485 1.22415555 -0.43325 -0.15562485 1.3325556 -0.43325 
-0.15562485 1.38255555 -0.43325 -0.15562485 1.49095555 -0.43325 -0.1556248 1.22415555 0.43325 
-0.1556248 1.3325556 0.43325 -0.1556248 1.38255555 0.43325 -0.1556248 1.49095555 0.43325 
-0.1556248 1.22415555 0.38324995 -0.1556248 1.3325556 0.38324995 -0.1556248 1.38255555 0.38324995 
-0.1556248 1.49095555 0.38324995 -0.10562485 1.22415555 0.43325 -0.10562485 1.3325556 0.43325 
-0.10562485 1.38255555 0.43325 -0.10562485 1.49095555 0.43325 -0.10407391427 1.22415555 0.38324995 
-0.10562485 1.3325556 0.38324995 -0.10562485 1.38255555 0.38324995 -0.10562485 1.49095555 0.38324995 
-0.10562485 1.22415555 -0.38324995 -0.10562485 1.3325556 -0.38324995 -0.10562485 1.38255555 -0.38324995 
-0.10562485 1.49095555 -0.38324995 -0.10562485 1.22415555 -0.43325 -0.10562485 1.3325556 -0.43325 
-0.10562485 1.38255555 -0.43325 -0.10562485 1.49095555 -0.43325 -0.05002485 0.12415545 0.43325 
-0.05002485 0.39095555 0.43325 -0.05002485 0.4908222 0.43325 -0.05002485 0.75762225 0.43325 
-0.05002485 0.8574889 0.43325 -0.05002485 1.12428885 0.43325 -0.05002485 1.22415555 0.43325 
-0.05002485 1.3325556 0.43325 -0.05002485 1.38255555 0.43325 -0.05002485 1.49095555 0.43325 
[...]
CELL_DATA 10967
FIELD FieldData 1
color 1 10967 double
5.8413088609 5.2842534457 3.2931405587 3.6756011315 3.0557549392 4.2120409655 4.3315918331 3.4630813486 3.130364467 
3.8928891457 3.9685026299 3.4307395541 3.0749148997 3.3333817895 3.99904128 3.3438252106 3.5935818021 3.0882905636 
3.3744297899 5.0512493469 4.9990015852 3.9685015717 4.3606874651 3.7648155773 3.2920022528 3.1110723362 3.5211215495 
3.9597212528 3.3278884104 3.3800498715 4.9990031297 4.9213402526 4.999002059 3.1739266189 3.9597212528 4.6879994672 
3.8030255234 4.1289442281 3.4355438744 4.4191595766 3.3823433258 3.0530239389 4.9567227775 4.5222251936 4.6321436942 
3.6075494213 3.6829640111 3.7367963247 4.0572882318 3.9597212528 3.3067366519 3.4998037004 3.4103855263 4.0471813671 
3.516342512 4.1413246966 3.9685034236 4.7143108359 4.2798423475 4.2685167253 5.0616410275 3.9685031591 4.5139456023 
5.0105588262 3.6368946193 4.8886249999 4.5462262048 3.3131489187 3.8625628485 3.9685031591 4.4538487378 4.8696702126 
3.9597226388 3.7407908637 3.8629824509 3.2773700206 4.5117713658 3.7255708513 4.2758720462 4.4860894247 4.9206530066 
3.1914492628 3.9185808317 3.3669457809 4.9163851633 4.4883764956 3.7485889677 4.0590263116 3.7114185154 3.5515903024 
3.1233519186 4.9122503905 5.3112293781 4.5510658448 5.162044782 4.9441753181 6.0088333264 6.9798322598 3.6709525595 
5.2631803713 4.0471805043 3.9934262721 4.2552987479 3.8981435503 3.7663184492 3.6363160705 3.7062986226 4.0165136422 
3.8609858131 4.1016141697 5.7972051242 4.9938948408 4.9041762122 5.8138708342 3.8368733882 5.3589894049 4.5900079802 
3.4965151541 4.4111872116 3.4421592738 3.7384206184 4.5038543709 4.0446377905 4.136457366 4.2762263284 4.9408530269 
4.5524862501 3.8846274214 4.1257204521 3.9853516868 3.5322152106 3.4431382917 3.5906992127 4.5411353406 4.9990036036 
4.070763446 4.0726375586 3.7361065939 3.6768200213 4.0374182854 4.3637596544 4.0970547779 3.1315197596 4.1190335499 
3.9597212528 3.5002571615 3.6024031185 3.2310349785 4.3923319738 3.2846137888 4.4759284976 3.6633810215 5.3290355671 
3.3007841879 4.3848181957 4.1874627625 4.9990055148 4.3789847445 4.1005217188 4.0704802208 3.7675649727 4.09101269 
4.6385756475 4.5444267097 5.1198369782 3.9263621594 5.5942407472 4.3413843825 3.6279636477 4.7561589738 3.6216972855 
3.3635954607 3.4735944609 4.5690053756 3.3075834519 4.251446811 4.1247695648 4.4139361771 3.7239869643 3.2499022542 
3.9597227317 3.3146734176 3.5716523669 3.4337938467 3.2345256545 3.1637624461 5.502154092 3.3914637043 4.0932433161 
3.9685026299 3.7780798184 3.866877428 3.2304387676 5.8756284671 3.147424995 3.4103828863 3.3634769693 3.4160649805 
3.7498746734 3.3817479468 3.3611959403 3.6196362952 3.8824895774 3.6891756039 4.2095573834 3.5874847291 3.5238432027 
3.4998487303 3.7788180536 3.9542456723 4.9990036036 4.2756350458 5.0090988583 3.3311656039 4.0471805043 3.8615919205 
3.9685026299 3.4481489832 3.1815852562 5.8756311561 4.9840215591 3.8441170653 5.3713059793 4.954366605 4.0241939319 
5.1407862855 4.2818926002 3.354846926 3.4130853179 3.9383898603 3.9685034236 4.3343213412 5.7092558654 4.9990001478 
4.9990045671 3.3410935591 6.2506829809 4.6575702666 3.9457899349 5.8756261649 3.4060860297 3.2495256011 3.3989741247 
3.0932976196 3.7146672074 4.3410127667 3.9685034236 4.1733700416 4.582117798 3.2129180977 4.9990030226 4.0471813671 
5.2359138292 4.936371083 4.8580424233 5.8756284671 4.6199016662 3.9597227317 3.9685018362 5.0190087313 3.5287222129 
3.4323835368 4.3542366653 3.576804772 4.8823854333 3.4656910834 4.9990031297 3.4925364587 3.3628560397 3.1475686657 
4.4090251103 3.5904074451 3.3462886423 5.3717732889 3.5885811252 3.5916465558 7.1229586728 3.0527644595 5.3282595517 
6.7791659914 3.2414029952 3.0688308294 3.5617124606 5.8756311561 3.9784692192 3.935619019 4.1397602425 4.9336204179 
4.3211916216 4.8833783368 3.6551846248 3.2941194025 3.7519286436 3.3887830515 3.6087445873 5.8756309627 3.7334933668 
4.278298031 3.7800872943 3.2911927351 3.5669033451 4.8928999385 3.3146563246 4.6155818535 3.1912268049 3.3348069255 
3.0726838563 3.4136574145 3.6315103088 5.3885546778 3.8948804875 4.8800797154 3.1611224253 4.2698430535 3.2478034089 
3.1619530496 3.4919929 4.9543670831 3.4182336646 3.5138011529 4.9990039702 3.7618828934 5.8756311561 4.9990031297 
3.5979947788 3.9333544905 3.6664056447 3.9685034236 3.3538631239 4.817508337 4.9620226564 3.9493558413 5.5307630073 
3.9105732546 4.6425056381 3.9820569341 3.567314041 3.2333555685 4.9990001478 3.4185815025 3.3156106024 3.2882412158 
3.220358089 4.9990016924 3.9685018362 3.2579624382 3.416513717 3.0654910802 3.5047232206 3.0738736575 4.1117329011 
4.0382764587 3.9126844655 4.0238229327 3.7109357445 3.6263810579 3.8220718212 3.4716212435 3.484971393 5.2842534457 
4.9163851633 3.6185837031 3.2421068764 5.4892365091 3.1419597834 3.7395293262 3.1506768351 3.6338413086 3.3915653271 
4.6192441811 4.6122912051 4.3322554689 6.7791659914 3.7483982905 3.2279651475 3.5716037063 3.6291575254 4.2467136997 
3.1858345504 3.3459404113 3.2131078189 3.3947407257 3.4181321864 4.3653523638 3.1041468061 3.4193668347 3.9597227317 
4.0094343593 4.7062520375 3.329906621 3.9685031591 3.7895775453 3.9065931353 3.9597227317 3.6479351567 3.876442811 
3.055465497 3.4154908942 3.659740304 3.3113600316 3.97886589 4.999002059 3.2948936399 3.3003123564 3.5690407054 
5.2842518331 3.4457958742 3.6751053297 3.7128925356 3.6011574384 3.4417248505 3.3561194643 3.7463022048 3.9655142055 
4.1449249004 3.4930994137 3.4522519483 3.3184137886 3.5811970704 4.0471805043 3.6291993332 3.3870269015 4.999002059 
3.4365146077 4.2290395171 3.4034575257 3.2888922747 3.6577756945 3.0741056295 4.383739318 5.209866864 3.4468022036 
3.8425038614 4.251446811 4.6735504988 4.8644272053 4.8716000971 3.7289704652 3.7789347864 5.0123152093 4.4773202482 
3.6093133205 4.8172411927 4.114731465 3.9597228247 3.6946328923 3.5731882681 3.5238310181 3.6910124613 3.8288257337 
3.9099393788 3.4349804396 3.9685034236 3.9297583537 3.4797072541 4.3324734113 4.7417261385 3.5369652648 3.5566268306 
4.4066185069 3.2079445323 3.1646755368 3.2827432346 3.6462905863 3.5504007671 3.9685034236 4.4820787925 3.2703063444 
3.9597227317 4.0471796415 3.4265041219 3.9716816755 4.048019404 3.9046403043 3.7183811456 3.7752968303 5.197915314 
3.9882522285 3.9784676318 3.4472461843 4.4420216402 3.8582262826 3.0393082825 3.9882522285 3.9597226388 3.1008647329 
4.0471805043 3.6773051505 3.8164101455 4.0046660221 4.4188251547 4.5535950238 4.0699591733 4.0488404678 4.9990016924 
3.9366068355 3.8643043829 3.5671450732 3.5768364627 3.2684619058 3.3591468801 3.7309088657 3.3773721112 3.4188831272 
3.2552998679 3.4869934879 3.9685026299 5.0097170445 3.2821150728 5.8577421879 4.9947205934 4.5873624244 3.2805628857 
3.1765145589 3.9685026299 3.9597227317 3.4634971626 3.902038767 3.9792184019 3.9597212528 3.9597212528 4.0471805043 
4.4345796318 4.9473168005 3.3176568007 5.0149692019 4.9990030226 5.8756311561 5.0149701583 3.6177977473 4.9990031297 
3.3345410096 4.2921108537 3.9685018362 4.3189927282 3.979216912 3.232682079 4.999002059 3.6553796141 3.9685026299 
3.9597212528 3.948397499 3.1623882534 3.1803118712 5.0447307103 3.8485168471 4.720392505 3.9840328269 3.3157287863 
4.434595293 5.4435336912 3.7172268669 3.965512631 3.9685018362 3.5629226048 4.4092424748 3.9597213457 4.9990039702 
3.442729943 4.7633386421 3.5899876612 4.0471805043 5.9844469701 3.5081688385 4.999002059 5.8756286605 4.9990015852 
3.5553116202 6.6834934569 4.9990015852 5.8756286605 4.999002059 4.0123569727 5.1378584357 5.2842534457 3.2967733226 
4.21007203 3.8245872595 5.7792691947 3.4971843045 4.2619078085 4.9775361183 4.1976861437 3.4440003603 3.9685018362 
5.8707254437 3.9104347186 3.4055070241 3.5608852783 5.8756284671 3.996251062 4.9296539269 4.7443443946 4.6425063474 
3.448758273 4.9990016924 4.3653518347 4.9990015852 4.0471796415 3.5716523669 4.5265608805 3.1697875842 3.3309185073 
3.3885156321 4.0471805043 3.9597212528 4.4169144104 3.9597227317 3.5899873466 3.9597227317 5.8756286605 3.9685026299 
3.9685034236 4.0471796415 3.9597211599 5.4324193718 4.9990036036 4.9727392137 3.8954062543 3.5633393076 5.8748640919 
4.0206106216 3.8140102439 3.2256921055 5.3276675595 3.9597226388 3.9597211599 4.0042781027 3.9597212528 3.589398923 
5.8756286605 3.2359068307 3.1489513434 3.3490111153 3.1998121534 3.6282556335 3.4109745346 3.4495766536 3.4448273096 
3.0517564232 3.4687588695 3.2163628253 3.4461142007 3.6373673745 4.0134110742 3.1896296455 3.9383093413 3.9676716034 
4.0471805043 3.9534087568 3.5608135539 4.0471805043 3.9597227317 4.0471813671 4.3294565092 5.1730769975 5.8756309627 
4.9990016924 3.8972426891 7.122958569 3.841065031 4.7319009888 3.3534486844 3.2113866259 3.1476928406 3.7042481332 
4.4969063152 3.8290389921 3.1473800896 4.8169587583 3.3338762575 3.2699174802 4.9990036036 4.9990031297 3.9597227317 
4.8208506406 3.9556890833 3.621737372 4.8800797154 4.3542356102 3.4451783464 4.8756312574 5.2842518331 4.7273678723 
4.2117688402 4.9990031297 5.8756309627 4.9990036036 3.5337594387 4.4610296666 3.468511447 4.9659624465 3.0738659563 
4.5197017621 5.221921212 3.2384614379 3.5362873554 4.3865710673 3.8593634496 3.4040004184 5.8759637911 3.2897745908 
5.6721704362 3.5000982103 3.1092784278 3.3653520448 5.0338155851 4.1275115759 4.8800788264 3.2024739064 3.1837145197 
3.7070613927 3.1038699561 3.352640819 3.5813588188 3.7921609975 3.27633373 5.2641414528 3.4048100063 3.7386463217 
3.4290819491 3.4188837176 3.1629166143 4.1304375789 4.0596306966 3.5439214319 3.4378113177 3.5829081285 3.4324641637 
3.1228332396 4.2847870704 3.4680556581 4.7630768433 3.4216618986 3.1476189183 3.3849116643 3.1235989057 3.2018311734 
3.1359727538 3.384407741 3.3162780573 3.5894219128 3.7524758325 3.3594851025 4.0607683187 3.3701458752 3.5735998371 
4.0319873423 3.5500625655 3.5933395754 3.2239354722 5.9248015635 4.2977357787 3.2149307154 3.4755055997 3.3685300506 
5.2741122646 4.5258427479 3.8424792227 4.5932969199 3.9474766911 3.5694141116 3.5578547879 4.164093313 3.9436040546 
3.385347228 3.3996414168 3.8093641294 3.4935993489 4.251446811 3.6184978672 4.8823251627 3.6895441308 3.8753675029 
3.5455486379 5.2842534457 4.1111665942 5.0399637326 3.4034754779 6.6679558401 5.1030260762 3.4125002665 3.4144635401 
4.4499419301 3.3734879395 4.1301262602 3.4246532034 3.2383046577 4.3242346146 3.5190706786 3.1109396876 3.8451504547 
3.5232736486 3.5560453872 3.7759492438 4.7050924649 3.2423415452 3.4453401149 4.9408526055 4.0880458171 4.9961283051 
3.6695251279 3.5314756638 3.4867052927 3.1476065066 3.24788722 3.2732331001 3.7208777133 3.1141075947 3.6219017451 
3.5186580279 3.3105460687 3.1395950185 3.6673896306 3.8257201319 4.5873624244 4.0670345651 3.5061220919 5.1422122301 
3.5905132242 3.8031178972 5.2565526933 3.2017386331 4.4562963291 4.2783517574 4.1669452115 3.8026368955 3.6470970895 
4.0542049099 3.835770579 3.3903486955 4.6425063474 4.5873624244 4.6425063474 5.8756309627 3.5795524379 3.5312306597 
3.2848582873 3.7231446392 3.2713397923 4.2429472538 3.7154071465 3.445893206 3.1287609168 6.2309495542 3.3463025539 
3.5323488208 3.7105012721 3.1995729524 3.3524138008 3.2807534566 3.3492444199 5.0523880359 4.8030899436 4.5873612296 
3.9046494764 3.3950335322 3.2027533904 3.1301584887 4.0920830867 4.4645549704 3.1548079835 4.4926729789 5.2842534457 
5.0447307103 4.5873624244 5.516750411 3.4778302101 4.2961603311 3.2255210264 4.2514472804 3.3864606528 3.8881362174 
3.5607697011 4.882385692 3.285008707 4.4435428277 3.4490754857 3.9550397295 3.572631111 4.329652735 3.2757966299 
3.4914300711 4.6425056381 3.0187166129 4.0332744162 4.999002059 3.9685031591 3.8986474207 4.409025527 4.882385692 
5.0376579621 4.8800797154 4.5161444857 3.2014897095 3.2640853314 3.725411042 3.272699135 3.5463502697 3.33345902 
3.295198496 3.3152793857 3.170024948 3.2022828348 4.9990045671 4.7660053902 3.8707850856 5.8756334583 3.2549149192 
3.7067998121 4.4740052159 3.2637986998 3.3295041194 4.2886145565 3.5146570545 4.9762751814 3.9896228205 3.2540451109 
3.0189847246 3.4829554676 3.2553619643 3.9822412823 3.575508891 3.4388563166 4.1789014522 3.6995500244 3.3056050591 
3.7573694482 4.8928999385 4.4125712271 4.4142986881 4.8853524043 3.5810195411 4.8823854333 4.4090251103 5.0376571257 
3.1544051117 3.2196058767 3.1894157689 3.4259479555 3.7405338575 4.6263135545 5.1032319288 3.6260299959 4.1645949729 
3.3260286623 3.5417889223 4.0858651364 3.8958049647 3.5953053407 3.1626480583 4.8800788264 3.3160695539 4.4080748429 
3.6103617904 3.8454888472 3.7328186209 4.1150255782 3.1135758396 3.3450003878 4.8823854333 3.6695510136 3.4892093702 
3.1928018655 4.3655897831 3.9125010296 3.269687661 3.6540527909 3.3316247122 3.3478704977 3.2301008751 3.1184950238 
3.3659972668 3.6299934487 5.1020138575 4.5160494258 5.5221882778 3.7125495378 3.6674532857 3.8063666266 3.6426097038 
3.2483390143 3.7116293516 3.4794643784 3.2740118933 4.2457849358 3.1410577336 3.021119064 3.3073094819 4.2422666203 
3.3985735555 3.5864059061 5.4630656132 3.4415942345 5.2842534457 3.4230176709 3.4153633196 3.3491356874 3.0707448548 
3.3917424245 3.0732763873 3.5075608762 3.512013069 3.7817465113 3.1397238687 7.1263454318 3.2853188468 3.2638461258 
3.2057573552 3.1898638903 3.9606132506 3.664666179 4.7047016922 4.1769202965 4.6936535212 6.7132653344 3.6210367284 
3.3191810439 3.418810151 3.508272272 5.9285587921 5.0287399865 3.6022667424 3.6504980839 3.0444390721 3.7210422589 
3.1689750469 3.5626103983 3.3866184968 4.8800788264 3.9685018362 3.589172115 3.7396412459 3.380877372 3.6823065729 
5.2842534457 4.0471796415 3.9597211599 5.8756311561 3.9597211599 3.9597226388 4.0471796415 3.4063163981 4.6425063474 
3.302151815 3.2213963048 4.1520062242 3.9597212528 3.4456685975 3.5462055364 5.0447307103 3.8213384109 3.2327836299 
4.8800797154 3.4289195743 4.0471805043 3.678670695 3.8906720211 3.5280285196 6.4989295868 4.5873624244 3.9303942354 
3.6620334998 3.9912578414 4.6425063474 4.1272864189 3.1959930718 3.4983298603 3.3352219949 3.5976873336 3.3156853853 
4.9990030226 3.0488901394 3.6980486265 3.1917069444 3.8889449135 3.3954187936 3.180600712 3.095170142 3.2934591119 
3.708639286 3.3875810832 5.8756309627 3.7876140972 5.2359154245 5.5068446018 3.3791424206 3.1615456695 3.2055084395 
3.9685036882 3.4557183331 4.9990030226 5.8756286605 4.0756109266 3.8419659744 3.8131936227 4.7417261385 4.7206155912 
3.5716523669 3.9685034236 4.9654939531 4.0371465907 3.2172935517 3.5775100951 3.3976764258 3.1949239464 3.2529509454 
3.1872587748 3.9597213457 3.9422147288 3.2167386875 4.1529220471 3.3949146812 4.9163851633 4.492556015 4.3778021319 
5.4892365091 3.43494972 3.3586703656 3.0851557154 3.5847509764 4.8498182225 3.4690466016 3.3873761663 3.9597228247 
4.2708952671 4.5504263097 4.0815933248 3.9685021008 3.6429452238 4.9163851633 3.3260395506 3.3222696865 4.5708405952 
3.1201276899 3.226935448 4.4341768991 3.1038015921 5.0149214041 3.0786849567 3.2433851323 4.2528046716 3.1633010076 
3.2973101624 3.9597212528 3.5454229535 3.4307739338 3.2389712175 3.9685034236 4.7961778992 3.9557021781 3.2427536102 
3.4371719801 3.341667949 3.4046633099 3.0891424288 4.999002059 4.1537507569 4.9990039702 4.4926724197 4.9990045671 
3.981316943 4.0471805043 5.0447307103 4.222732849 3.7487847062 3.477968456 4.0471805043 4.9990055148 3.7391691019 
3.3938523779 3.9685018362 4.0471805043 5.8756311561 3.9597213457 4.3653518347 4.3886646057 5.8756334583 4.7620913088 
4.0471813671 3.6664882293 3.9597212528 3.9685018362 3.9685034236 3.9685021008 3.1987204599 4.7800118837 4.1816506644 
5.4306987241 4.5138780957 4.999002059 3.9597227317 5.0978038917 3.9579746907 3.9685036882 4.9990015852 4.9990015852 
4.999002059 5.8756286605 3.9597212528 3.9597228247 4.0471813671 4.570368175 4.3910555694 4.4006032167 3.5716523669 
4.9990039702 3.9289726646 3.9597227317 4.0471805043 4.9408526055 5.0447296739 4.7064951474 4.7800118837 3.3615562927 
4.3653520992 4.4594341069 5.1370980283 4.3422560684 4.1505727153 4.3122555878 3.8093700752 4.5808265505 3.3990974569 
3.4922889206 3.3469031533 3.207585018 3.8867428669 3.9248089417 3.0763474206 3.4892657937 3.2532773903 3.1049163247 
3.2521706552 3.4687432606 3.5245164277 4.5873624244 5.8756286605 3.114112618 3.1153496153 3.2492813765 3.8286109115 
3.4068635181 3.0961637542 3.8788832784 3.9597212528 3.2453893055 3.3752448462 3.081217453 3.1574823451 3.187348166 
5.2934015394 3.4524780599 4.4720072264 4.2533354365 3.1309428832 5.0000945993 3.2534218414 3.3727472587 4.9990015852 
5.0447296739 3.9597227317 3.4976493811 3.435437637 4.9990015852 4.9408526055 5.502154092 4.5939393024 3.180072485 
3.4140755591 3.5744083557 5.0447296739 3.204390978 3.9685026299 3.6596551182 3.2250621546 3.4388482583 3.357636911 
4.9408530269 3.2790553369 3.1684052961 4.4837033815 3.3192546305 3.3225390332 3.4668291875 3.2909028529 3.304325647 
3.5716523669 3.0617283334 3.5439853884 5.8756284671 4.0336338567 5.8756286605 3.9685034236 3.6685908192 4.7329195636 
3.5716523669 3.5821719595 3.9685031591 3.9436735563 4.2194450121 4.0471805043 4.3653523638 3.9597212528 3.9597227317 
4.9763225394 4.7514080715 3.9597227317 5.2494926552 3.9597212528 4.0471805043 3.6296116403 3.6273616535 3.9685026299 
3.9597212528 4.9990036036 3.9597226388 4.7514080715 4.4926729789 4.4926729789 3.9685021008 4.7514090712 5.8756309627 
4.9990031297 4.0471805043 3.9597227317 4.7514090712 4.9990055148 3.7643725722 3.9831087178 3.483867817 3.4343767793 
3.2197664388 3.5469393891 4.8823854333 3.9685036882 4.9408530269 3.8540863411 3.9597212528 3.9597212528 5.8756334583 
4.3491785495 4.7145618082 5.8756334583 5.0447307103 3.3996343808 3.5954862552 5.0143867524 3.2551004695 3.9685021008 
5.3457382914 3.1382191746 4.5873612296 3.6331927793 4.4926724197 3.8655915335 4.0381913983 3.1134248801 3.389276739 
3.9597213457 3.9685036882 4.4926724197 3.9270526198 4.6165536355 4.0517896548 3.9597227317 3.9597227317 3.1716454626 
3.8039240713 3.1763568838 4.0471805043 4.1346014555 4.9990030226 3.2581146647 3.5281683393 4.9408526055 4.512596384 
3.3661433779 4.9163851633 3.8689785101 4.4831385571 3.8826950641 5.8455133811 4.9840210852 3.7325326629 3.3294523372 
3.6602436044 3.3612779051 3.2984328308 4.9990039702 4.8897819934 4.5024616329 3.1698443958 3.7160486126 4.2953355365 
4.1011707394 4.2193091812 4.7525438047 5.2408679477 4.3269129418 3.7652264633 3.9024567417 3.8695386353 5.0447296739 
3.3343031278 3.4186218204 3.3710975434 4.0471805043 3.1199359631 3.2418796569 4.0471805043 8.6249088094 3.5129920693 
3.4917192105 3.1540313213 3.5112548055 3.3263244639 5.6808447882 5.8455133811 3.3722353088 3.6799082898 3.301861142 
3.4253075868 3.7291772583 4.2975209065 3.0775925653 3.0909296669 3.1173932919 3.9301227122 3.9685018362 4.7590449551 
5.1977412218 4.0499816711 3.3555459592 5.0484985556 3.1053206435 3.4777970856 3.9597227317 3.2094864112 5.4965841928 
4.4926724197 3.5907255447 3.5952088673 4.9990015852 3.7614398779 3.5110299449 3.248755453 3.3432894724 4.3653520992 
3.3103745488 5.7071590658 4.9763230153 3.5996149466 3.8158064771 3.383557315 3.7864076642 3.5973386525 3.2785671254 
3.4628279087 3.7897419011 3.8665153847 3.4636609759 6.6679569229 4.663836492 5.8756309627 3.658172882 4.7715988036 
5.8756309627 3.6468286716 3.9597227317 3.4184943324 3.8586754324 3.465373003 4.0471805043 3.9597226388 4.3542366653 
4.1138448383 3.9422845356 4.9443779203 4.2306295189 4.5394918768 3.1851738545 4.0726634449 3.5539641143 4.9990016924 
3.1771647468 3.0998065206 4.9990036036 3.2117893038 3.2447281056 3.6251227051 5.8756311561 4.1469833987 4.9990001478 
3.5716523669 3.2912110331 3.3830509487 3.1291709761 4.0471796415 5.8101878085 3.176397498 3.3883658242 3.2942310807 
3.3015870943 3.9685026299 3.9685034236 3.4216694881 3.5253895907 3.9992448235 3.9641007836 4.0471796415 3.9742461744 
5.0090988583 3.9597212528 5.8756309627 4.9990031297 4.0471805043 3.322153208 3.9597227317 4.409025527 3.5749486034 
3.9685018362 3.6156868713 3.3129586317 5.8756261649 5.8756334583 3.5401992807 3.1955819397 3.6248704303 5.0447296739 