# vtk DataFile Version 5.1
vtk output
ASCII
DATASET UNSTRUCTURED_GRID
POINTS 7820 double
-0.55453338623 -0.94243326187 -0.80350093842 -0.55446777344 -0.92340297699 -0.86162567139 -0.55224304199 -0.91932067871 -0.84340295792 
-0.54366277045 -0.92614558014 -0.88941511715 -0.53780419928 -0.89957701946 -0.88767362532 -0.53114011241 -0.93954197248 -0.74450595421 
-0.53541259766 -0.94293384552 -0.89509773254 -0.53642021333 -0.91685364686 -0.78370885481 -0.52043707426 -0.91496398759 -0.91377804961 
-0.53358874221 -0.8982907349 -0.81581742908 -0.51841685475 -0.90706882353 -0.75544451806 -0.51859435992 -0.88550326394 -0.90260329534 
-0.51951904297 -0.87398643494 -0.86030607224 -0.5006765378 -0.8809079977 -0.77200363826 -0.50220769373 -0.86683709238 -0.87793389022 
-0.50954171091 -0.9212700629 -0.72551504195 -0.50996543855 -0.88275760108 -0.80493855208 -0.49623148833 -0.89291515013 -0.736252372 
-0.49913336356 -0.86650634743 -0.83934355373 -0.4891118386 -0.88018776575 -0.80371110878 -0.49380558224 -0.89446498886 -0.93287768888 
-0.49177911991 -0.92230263696 -0.70753424153 -0.48633299361 -0.87212072735 -0.90574448937 -0.48226118613 -0.92169721385 -0.95086831161 
-0.48261863783 -0.8644210296 -0.79371431133 -0.48398950378 -0.8669717098 -0.75736119685 -0.47683556012 -0.86406594011 -0.87802864474 
-0.4782414419 -0.84509852937 -0.95281913992 -0.4631480125 -0.83225907688 -0.92114095844 -0.46602050227 -0.8511226568 -0.88778437671 
-0.47732542524 -0.84784279798 -0.91025978479 -0.47116897558 -0.89129822106 -0.71360101702 -0.46360789359 -0.91326324164 -0.70188399532 
-0.46795043945 -0.94293394089 -0.69762759209 -0.46433217508 -0.84939454477 -0.79205925442 -0.45678089171 -0.82706566958 -0.98356693795 
-0.46572706198 -0.86733343944 -0.73399469293 -0.46524961193 -0.85070584153 -0.76187722202 -0.45291309191 -0.82183404974 -0.95406841426 
-0.44230739552 -0.88591599218 -0.71661710156 -0.45578567747 -0.85778190397 -0.84403270982 -0.43995397143 -0.864103134 -0.72880123639 
-0.44738529128 -0.84031115795 -1.0047646816 -0.41915522906 -0.81086874301 -0.93422290372 -0.44012170361 -0.83323415224 -0.89647596071 
-0.43980100817 -0.8432604471 -0.76039036002 -0.44168979524 -0.84110045447 -0.78299451326 -0.43302108479 -0.84535006067 -0.80232187766 
-0.41253395237 -0.88667414586 -0.73384011039 -0.4323313568 -0.8177470249 -1.0101314739 -0.42644219303 -0.83328095767 -0.84980857192 
-0.422819192 -0.80705403683 -0.99043006482 -0.42528218648 -0.82144896727 -0.83045381814 -0.42355853578 -0.85594453834 -0.74439848188 
-0.42263405433 -0.822876171 -0.80517519736 -0.41977007997 -0.84656836264 -0.76506456128 -0.41261252025 -0.80543268977 -0.81943287245 
-0.41060194458 -0.94293394089 -0.72233127885 -0.40748960769 -0.80103618369 -0.84649644454 -0.41250069031 -0.84040258175 -1.0354953401 
-0.41561705572 -0.83916548854 -0.78398422447 -0.40408532205 -0.80859613579 -0.87504998395 -0.41066656763 -0.82529585859 -0.78610895692 
-0.40639652365 -0.81385477952 -1.0305947195 -0.40018529814 -0.79950686027 -0.98206968282 -0.39759676545 -0.80407536765 -0.80115231938 
-0.3816885689 -0.81702363836 -0.91469101473 -0.38614920353 -0.7979798209 -1.0065456147 -0.3923248291 -0.85883493423 -0.75663928986 
-0.38902723686 -0.82719168683 -0.77715389927 -0.3875962779 -0.80333594398 -0.94860271496 -0.37835460234 -0.79687905556 -0.90010897189 
-0.38170693559 -0.94293384552 -1.0498651725 -0.3744234624 -0.78718088461 -0.8363681301 -0.38006031397 -0.78867572236 -0.87569855056 
-0.37306467763 -0.80618982188 -1.0332771505 -0.36685945919 -0.878393391 -1.0731617064 -0.367151708 -0.79880217909 -0.8026463438 
-0.35146520959 -0.8312522008 -0.78867313954 -0.34564644312 -0.82830915673 -1.0921768524 -0.35278023286 -0.81114171941 -1.0559955538 
-0.35197786669 -0.7935288843 -0.92217409616 -0.33676470954 -0.78605182735 -0.83081469851 -0.34785466415 -0.78041045404 -0.8984995364 
-0.35737232238 -0.79881010982 -0.96730053729 -0.33727734775 -0.77724428449 -0.86850642151 -0.3343184592 -0.78954379297 -1.0757945862 
-0.33624611985 -0.78884734289 -1.0471548314 -0.33495527704 -0.79691935046 -1.0117561 -0.3139269539 -0.80737398431 -0.82305074279 
-0.31559796774 -0.78009438681 -0.91313908576 -0.31843434696 -0.78366006282 -1.1049854397 -0.30050418391 -0.81341934702 -1.1379895664 
-0.32504581046 -0.87320592674 -0.79395112151 -0.29935508134 -0.78835037953 -0.98319599647 -0.31387889844 -0.76785609553 -1.0574955896 
-0.30885012297 -0.76837189594 -1.0893991151 -0.30887663802 -0.78196254551 -0.8565415194 -0.29346960794 -0.77715619507 -0.95006522172 
-0.29548246928 -0.76884719754 -1.0309996114 -0.28536590284 -0.78517794963 -1.1474299523 -0.29526985423 -0.77893057746 -0.89176234415 
-0.28390924406 -0.76499064926 -1.1234182338 -0.28194312163 -0.77056531081 -0.97962402699 -0.28386157136 -0.77846258046 -0.92004524802 
-0.2849996715 -0.75811903004 -1.0645761971 -0.27721726764 -0.7511579225 -0.9575044954 -0.26453621407 -0.75182059255 -0.98925582032 
-0.27661039395 -0.75751239971 -0.9302560886 -0.26375632357 -0.77748006936 -0.89596956316 -0.27920528964 -0.91967806431 -1.1557391962 
-0.2649881041 -0.76373922725 -0.90991787792 -0.25981553747 -0.73698266858 -0.94633787579 2.914207978 -0.94293431221 0.80558678308 
-0.26570623456 -0.75405161452 -1.0935169412 -0.26063079834 -0.78740742207 -1.1702919483 -0.2478000492 -0.75429758027 -1.1284606208 
-0.24788765268 -0.73499050555 -0.9763427853 -0.24278100449 -0.83172301649 -0.8617491249 -0.25357635475 -0.79276138204 -0.87193761259 
-0.25043487549 -0.74492053986 -0.91815004349 -0.25207663902 -0.76387315333 -1.1571195545 -0.23323467604 -0.89690190548 -1.1989784091 
-0.24138506056 -0.76104807891 -0.90030514821 -0.23529396891 -0.73137916189 -0.94825630237 -0.2487815807 -0.75730226058 -1.0587363158 
-0.2331104278 -0.74378363853 -1.01494535 -0.21292745728 -0.73083332435 -0.98711694267 -0.21740755024 -0.84588531768 -1.2080834175 
-0.22200586795 -0.75110297726 -1.105265487 -0.21227987967 -0.74146836521 -0.91982073231 -0.21497984137 -0.78637227712 -0.89235864506 
-0.21255653279 -0.77545703391 -1.1907491521 -0.20773922661 -0.75246937371 -1.1390070086 -0.20537025645 -0.72979637519 -0.95410282308 
-0.2109196468 -0.76076714963 -1.1703781396 -0.20483317863 -0.75364050618 -1.041320132 -0.18687456431 -0.79155384961 -1.2074044256 
-0.19680480957 -0.94293375015 -1.221033287 -0.18898819979 -0.77373139408 -1.0666213471 -0.17460664141 -0.7412376286 -0.94091608688 
-0.18989508088 -0.73862472253 -1.0228001365 -0.18346195977 -0.77710555445 -1.1893407342 -0.17627760587 -0.73334217311 -1.000438564 
-0.1806060791 -0.76541490555 -0.91641321182 -0.18726158244 -0.94293384552 -0.87704253625 -0.17191234904 -0.73335913 -0.97116558696 
-0.17019101734 -0.88293027949 -1.2412111878 -0.18096521954 -0.76625639372 -1.1648720366 -0.16763179366 -0.80861504579 -1.2314079926 
-0.17233150662 -0.76741137869 -1.1305150739 -0.16866981292 -0.760010122 -1.0583543298 -0.18106227284 -0.76574362654 -1.1031199177 
-0.16456450738 -0.78539889592 -1.1937344745 -0.15992431641 -0.7433423996 -1.0249198437 -0.15513305664 -0.77788348198 -1.1583598614 
-0.14199672082 -0.77048793709 -0.93797953108 -0.15792746613 -0.8172414975 -0.91597142199 -0.14596803679 -0.77247817585 -1.2051242207 
3.156128495 -0.9429337748 -1.2232423371 -0.14338594674 -0.7442428444 -0.99438775952 -0.13804077362 -0.75064320702 -0.96513798659 
-0.13966070954 -0.77550637408 -1.0962085622 -0.12681884766 -0.75752100945 -1.2106248856 -0.12662596405 -0.7601396911 -1.0354522437 
-0.13425188762 -0.89103956054 -0.91853194789 -0.12572419166 -0.75561753625 -1.1742743809 -0.11962666144 -0.77816017772 -1.2381773948 
-0.099194567467 -0.94293384552 -0.92170079616 -0.10574590453 -0.75378982077 -1.0556476385 -0.11035461426 -0.76002221107 -0.99633188248 
-0.11496496456 -0.76564637126 -1.132347797 -0.096424609 -0.74193489444 -1.195381101 -0.10221252441 -0.80795564651 -0.94233236313 
-0.089434057994 -0.81728066083 -1.2590595069 -0.098306098931 -0.77223505035 -0.95973097275 -0.091282214657 -0.74638435528 -1.0133148961 
-0.096013891223 -0.75115381634 -1.226572759 -0.089483170015 -0.74114643681 -1.1676530293 -0.09528503418 -0.92577400208 -1.2773600578 
-0.095455359835 -0.75786050615 -1.0814930082 -0.095653638252 -0.94293375015 -1.2765196012 -0.077915123677 -0.73257751764 -1.0335163196 
-0.082542649942 -0.75201230498 -1.1388041648 -0.077809009681 -0.76782146479 -1.2497107081 -0.076285085153 -0.74101087828 -1.0711587405 
-0.078805037445 -0.88985316089 -0.93381517838 -0.058577682706 -0.73420186729 -1.1722561852 -0.055692081884 -0.72487890882 -1.053824071 
-0.071031776544 -0.74673331868 -0.98654666055 -0.05755014952 -0.72759984795 -1.0120150464 -0.043079874024 -0.74562303379 -1.2400471871 
-0.061456575619 -0.73698752046 -1.2072400954 -0.052224958588 -0.77104633954 -1.1079580035 -0.046216861646 -0.73625776134 -1.0815932943 
-0.050697999376 -0.76261768351 -0.96515083551 -0.038807011745 -0.71833420881 -1.0306645586 -0.040412902832 -0.76559758186 -1.2564510345 
-0.021099806419 -0.94293384552 -0.93397817386 -0.035058681752 -0.88317227483 -1.2883549071 -0.018368582829 -0.88435806702 -0.9379714339 
-0.023246858296 -0.71872862807 -1.054162564 -0.025784301758 -0.73532552719 -1.1517279625 -0.030936184923 -0.73304087311 -0.98651491763 
-0.016230402398 -0.71830076912 -1.0095528949 -0.012110030684 -0.72740062347 -1.0776887577 -0.010639555879 -0.73156767019 -1.1901981069 
-0.0084060668945 -0.94210619926 -1.3051469803 -0.0072307294381 -0.71451936866 -1.0323236624 -0.011356183871 -0.75593232248 -0.96726965012 
-0.014087940199 -0.80018421203 -0.95157580396 0.0014678955078 -0.75669679642 -1.2527976036 -0.0091278594656 -0.73583981166 -1.2195253572 
0.030655780343 -0.83918680889 -1.2830321714 0.012162968024 -0.75125118985 -1.1371506339 0.017422059075 -0.71742995929 -1.0139520327 
0.019183762565 -0.73188625462 -0.98676073691 0.016835745396 -0.73723219734 -1.0824203464 0.019007092614 -0.72051899906 -1.0583694305 
[...]
CELL_DATA 28505
FIELD FieldData 1
color 1 28505 double
3.5076917876 3.9677243909 5.4625313122 4.1117760968 3.3622983732 5.175562358 3.19517623 3.5048930908 3.9012013364 
4.0148055367 3.4913254726 3.4191668152 3.8655009009 3.7946428308 3.184832429 3.9047495677 3.4020596077 3.3676389983 
3.9573135512 4.1147380228 3.364064949 3.773601235 3.4571639748 5.118623865 3.5982539017 3.1367031287 3.8338666742 
3.2153316702 3.6249760966 3.8877495459 3.2724712593 3.3818915682 4.1334838691 3.412324615 3.4534247719 3.5214934889 
3.5426733041 4.146419177 3.4214220765 4.06208049 3.3910275172 3.2754156468 3.4563233312 4.183284049 4.473411717 
3.2449187005 4.0763944979 3.2196765527 3.3236086463 3.3862710285 3.8766639415 3.5076384439 4.4269616145 3.3962224681 
3.749211669 4.1128301855 3.713660883 4.7502446785 3.588341936 4.7012505426 3.596565917 3.7149471538 3.8442303779 
3.3731895851 4.1967704845 4.5741505601 4.0330336691 3.1100381897 3.9410656506 3.5639729757 5.0030111077 4.1043488263 
3.8581230001 3.3334689262 5.305764162 4.4436502986 3.5079037401 3.2222902335 3.4604247185 3.4449612968 3.5677035546 
3.509240503 3.6441413179 3.9021586657 4.6757203999 4.7276898383 3.9849985227 3.3772846809 4.2469064879 5.8847836736 
3.3014069057 3.7495190626 3.4552595516 4.0967685397 3.8480304893 3.2809180371 3.5865285694 3.40760696 3.5583227455 
3.8313704127 4.2754414063 4.2347813705 4.5780700807 3.8207770323 3.5263354875 3.5697278418 5.1215561252 3.8182457178 
3.4180972135 3.8333259298 3.9196880611 4.9056237516 3.2682661789 3.8896096168 4.1192997706 3.8914168337 3.3131380484 
3.7118421032 4.5606885789 3.2661980066 4.0227679122 3.1672891427 3.8928976599 3.4223711211 3.8679896603 3.4060346918 
3.7388497973 3.835240996 3.6858675302 4.5274272057 3.9263273461 3.6109694001 5.0519059007 4.0986829717 4.0748642919 
3.3659386427 3.6110161337 3.6086150845 3.5017970937 4.4439363563 4.8164459294 3.8266756954 3.6677853517 3.4864065469 
3.3761509043 3.4565507424 4.5311594345 3.4212687943 3.1345271274 3.901257404 3.2107083914 3.4439629642 4.293584867 
3.4480947636 4.927069034 3.9302469679 3.3905187351 5.0209878484 5.2294280191 3.7018066633 3.7628996111 3.7367663785 
4.0165692782 3.6957449927 3.2376279491 3.684747627 4.1442039122 4.0446788359 3.8724040315 4.3528205437 3.9995057262 
3.5637472473 3.1567641794 3.7276136818 4.012422042 3.1327760053 3.6355544717 3.8562812667 3.8985621496 3.0920279657 
3.2872246583 4.8704846626 3.3871017495 3.6829335338 3.5176272865 3.5282596792 4.1683025126 3.3707136721 3.5007309776 
3.6020263863 5.1571992469 7.1296372486 3.7336809017 3.5872255407 3.3543666332 3.146411644 3.9576972905 5.0282292567 
4.1535054326 3.9395802798 3.8213812676 3.2762528698 4.6530207177 4.6169646149 3.6056235362 3.936096993 3.5519057383 
3.6572769223 3.8161424062 3.8167803351 4.7059788977 3.3506108963 3.1367206147 3.7811825449 4.2780884446 3.3093358791 
3.3899410334 3.757157953 4.4954417615 4.4605025206 3.2474469287 4.1859685305 3.0899122729 3.144272553 3.2893298052 
3.4033167398 4.4245999559 4.3131602701 4.3363199355 4.6252884193 4.1299834415 7.328748427 3.5990589485 4.2143820485 
4.0425321527 3.9401717967 4.1720004695 3.2104380327 3.3501846887 3.4384996611 3.9846213879 3.3524817465 5.2140367214 
3.5679345224 3.7411434776 4.0328558105 4.1346409313 4.0873360046 4.9744859619 5.1459806631 3.4198379951 3.4312302283 
3.7607796001 4.5588652978 4.6176290739 3.5531370893 3.4403072542 4.4138084979 3.2022835122 4.3680075065 3.6330027319 
3.768368527 4.281930219 3.9411216041 3.7902775095 4.7437181766 3.4730488645 3.8080793204 7.0190002381 4.26959395 
3.3801249294 4.2166636834 4.3510982367 3.668062587 4.6552253855 4.598424299 4.2118831076 4.5878378241 3.4573263587 
3.2210987174 3.6380797303 3.6021346545 3.3867506387 3.9107936685 3.2107929527 3.6343013377 3.1730345922 4.8574354104 
4.1619076258 3.3181163095 3.3111163165 3.094254579 4.3140538374 3.2529267658 4.3101814372 3.96227135 3.9583591654 
5.07040972 5.0007717603 4.6598505537 3.9458061513 5.460734158 3.7568505022 3.8086922619 3.5405444959 3.7805287034 
3.7216298339 3.5460069104 3.6020070706 3.7305410779 3.4855644839 3.7270139418 3.2337415709 3.2827652234 3.8528352652 
3.825234691 5.8783468388 3.666877464 3.6131716594 3.3268632653 3.5813100193 3.613923657 3.856697475 5.1476976839 
4.4118127884 3.2818056663 3.3831233489 4.3336976513 3.6964436844 3.3692824544 3.3520064653 3.462938358 3.7815883391 
4.3077649897 3.6345846674 3.0804291284 3.0583343873 3.7653209147 4.495329595 3.7204604516 3.6068886322 3.1369761315 
4.225316328 4.4243908969 3.5715997546 3.1936205307 3.6275396676 4.7046756926 3.926762176 3.4253936808 4.071895637 
3.2488754309 4.876140365 3.8358978816 5.3007662137 4.4268924351 4.6307107422 3.6688321017 4.0511072537 4.3404529894 
4.4149151166 4.5990735947 3.7303810453 3.1559454669 4.0310012779 4.0114237766 3.9606358264 3.2089969825 3.6680055702 
3.9401702876 4.2074026476 3.3983794288 4.1577557374 4.2071043688 3.9634906952 3.7899575489 3.534822681 4.2159989419 
4.1374555563 3.5041596451 4.1560256457 5.4374802842 3.7443701316 3.443423071 4.697128551 4.2808481799 4.0463362185 
4.3269149677 3.5384584395 3.6693803867 4.7901568986 3.4826687592 4.4332861559 5.3041691236 3.2607815352 4.5567492375 
5.2884352999 4.2380233872 3.0923454257 3.9745609811 3.8204013845 4.2084173911 3.3304830962 3.9776768833 4.1379698289 
3.7560740711 3.4250574715 3.6854135363 4.4661816475 5.8022221679 3.6854709918 4.1837910156 4.7090074169 3.6571756227 
3.847422696 3.5773055718 3.6592417394 3.9345091328 3.2730409392 4.9626062331 4.7843035878 4.0273556867 5.0256248609 
5.1063934779 3.8285270526 3.9584310321 4.0240728272 5.0205680285 3.9908437013 4.3815496266 4.5264435972 3.8286826217 
3.1632249006 3.9100246804 3.898612601 3.9387705097 4.1326449289 5.0384503565 4.1599618603 3.3276093538 3.7018783865 
4.1627867765 3.8203722008 4.2619855262 4.5304725932 3.4679313199 3.5475399188 3.4859482684 3.9388978126 5.3640835673 
3.3729643339 4.8303080538 3.8797143295 3.8265532406 5.5387913397 3.8485241084 3.8665397132 3.4471563168 4.6397608324 
3.436985382 4.0848300911 3.3606031879 3.9665313947 4.3498260371 3.8715470207 4.3423333496 4.7047195671 3.2673855806 
4.4952034721 3.1785183955 4.4522795265 3.6687653956 3.5066009885 4.6306837875 4.4282303372 4.0507030509 3.899762302 
3.6117337655 3.6082200663 3.1998971922 3.8628089676 4.2341436794 3.272028142 3.1323479182 4.0747275606 3.5929302664 
4.3236526644 3.8892496579 4.1623181034 4.8681801433 3.8513385175 3.4113274246 3.2813115221 3.5649256774 3.6770542209 
4.6783115069 3.4341438473 4.5782723042 3.8577505053 3.8648272828 3.4350719124 4.3236308531 3.8192090155 3.3188121242 
4.3120321695 4.0998124756 3.6993739903 4.7262004358 3.6674222331 4.6659323142 4.8554278185 3.5658797078 3.6034726394 
3.2828856833 3.9200647042 4.2182954228 3.0848095316 3.693516479 3.4016000647 4.1182056329 3.5205750802 4.2662687173 
4.0501424907 4.069944946 3.1394571629 3.5411817339 3.8797394889 4.2416433649 3.530487417 3.6635632107 3.4173808512 
3.6536472462 4.103902821 4.1150754925 3.8601908025 3.8396087755 3.7685432891 4.6119439545 3.8702647034 4.3924004265 
5.1183017104 3.7846002608 5.3636654734 4.74867928 3.4895114526 3.4039926341 3.8195194887 3.4947364967 3.5128372296 
4.7240612494 3.3763187347 5.5900505547 3.5303322083 4.8929362709 4.1756089365 4.0107990255 4.4584021269 4.6589821456 
3.5885148279 3.5192416611 5.3459851215 3.3585211368 4.3840546647 3.954463608 3.8458251266 3.3731015492 3.9830780433 
4.088517904 4.4534085155 4.5603177644 3.459621895 3.8539698145 4.1108166578 4.2696211728 5.0401627086 3.5766086103 
4.2784792585 3.3829359603 5.0261229594 3.6312413463 4.7457309675 4.0678573348 3.6254127207 3.9534131637 4.3373208463 
4.074458092 5.250926175 5.0942827986 3.3721088369 3.2476052072 4.0284769215 3.3208302477 3.4998967578 4.2246848528 
3.6663758774 4.1967668827 3.983895504 3.7417448076 3.4944601198 3.383602984 4.2556560653 3.7784402478 3.8459651694 
3.8990566808 3.8903537572 4.1012637788 3.8203110295 3.1753311928 5.0855576468 4.7379582159 3.4109350068 3.8218011206 
4.0231533989 3.8525684413 3.7675301825 3.5377704205 4.5980975666 3.3677661341 3.8067499202 4.1016113454 4.5704362932 
4.165721326 5.2190516188 3.7321512671 3.1910431898 5.1548243243 3.5625360413 3.7653375126 3.487857176 3.5153192221 
4.6040605457 3.6760054285 4.1935522188 3.198257559 3.4234420307 3.4595087082 3.5722020975 6.704488942 4.9082777137 
3.3909253576 4.0157829647 3.7619269926 3.217153319 3.7305886396 4.0805053202 3.7304305732 3.8002337661 4.4252595328 
4.0282765717 4.0835252389 3.4528776941 4.3092612256 3.8394105687 3.5452107942 3.2979776218 3.2616283012 3.5718342212 
5.2576700684 4.3259280909 3.853044197 4.0494946609 4.2493115722 4.7042593204 4.0458525606 4.226692302 3.3260422205 
4.2360979984 3.6431661553 3.3345915154 4.0971860903 4.3936876631 4.870534039 3.1125382185 3.1700343222 3.7906161041 
3.3651190271 3.7610955355 3.5813741733 4.4860428731 3.9273727526 3.8530576895 4.578110192 4.8292753802 3.5679467811 
3.8567935971 4.6762048277 3.4130736254 3.9836731868 3.5661273845 4.5952903182 4.3418265175 3.5916342141 3.4679702348 
3.8354598273 4.2997613456 3.5012222859 3.762222734 3.7271445548 4.1582986506 3.916137808 4.7222502036 3.837023018 
3.7275811329 4.2530552971 3.6906254365 4.7563204061 4.6818280806 5.0312818399 4.0243181231 3.2854783153 4.1248142565 
3.9221417351 3.6340019139 3.4307138927 3.7382125069 3.3926750765 5.2872753948 4.4540995525 5.1120494353 4.35642729 
3.2037301112 3.5367314813 3.8677109764 3.8549421808 3.3175713953 3.3836765602 3.5610129237 3.2332448253 4.4993225208 
3.9077344944 3.5147252664 4.5083781626 3.7857617725 5.0192806177 3.5530407159 4.3168406846 3.4128371891 3.3829591758 
3.9558288607 3.2826840451 4.8743471036 3.6967567229 4.3194201096 3.7900637973 3.934261242 3.5424871591 3.7942451168 
3.8633592433 3.4180201796 3.7012836909 3.5897355656 4.5826537451 3.4777003228 3.8720786108 3.8552074294 4.3590655133 
3.1803592242 3.9053352461 3.3260467899 3.5815305883 3.1309536881 3.5988900164 5.5709314364 4.1061968885 5.8785254401 
3.7635471169 4.8240960211 3.712811435 4.0941840421 3.9323412507 3.457364908 3.8259524774 4.22043928 3.223446616 
3.5565305115 4.2692401064 3.6936330801 4.7100237741 4.6455885142 3.6638816152 6.3231730376 4.2550537833 4.1762184541 
3.4624683563 3.2421792617 3.4227999203 3.3514667253 3.152581496 4.1946366795 3.1981557169 3.9821609205 3.380523014 
3.9622384121 3.567139399 3.9943156287 3.6483000577 3.3179561794 4.5580664496 3.7792571664 3.2794456781 4.2382929454 
4.0096830485 3.5658240377 3.8006632095 4.9353418825 4.042876386 4.1284860179 3.4079369485 3.6176192185 3.2087991044 
3.3608945288 3.661961994 3.6300148866 4.4158076913 3.9188423484 5.1289711623 3.7296694504 3.584546979 3.1668009762 
3.9950677371 3.3767418112 3.9089331292 4.0839128649 3.376516002 4.7315040512 3.7690915877 3.5070346226 3.7821275594 
3.2552939444 3.0525890897 3.6175254062 3.5347522563 3.4216545169 3.6704032915 4.3010226623 3.0636074958 4.7264838378 
4.2078283772 3.1819659188 3.6037483153 3.210474349 3.2165096823 4.2183340051 3.2794379992 5.542304764 3.4770997863 
3.8018329624 4.5993988062 3.6450580863 3.4285328943 3.892963243 6.4271539238 4.0635047415 4.1951296099 3.6303103515 
3.5874309136 3.3874144511 3.3123804565 3.4829146801 3.3162684171 6.145825323 3.4175070717 3.8362962915 3.4748990098 
4.9923568555 3.5293688465 3.1500388599 4.9755250214 3.8751933721 3.4672300782 3.180174253 3.2813043351 4.9159796335 
3.8390845613 3.8614291187 3.9629593782 3.4220605575 3.3358797175 3.1228190178 4.7003001509 3.531682179 3.8093911532 
3.5803686248 6.5525499217 3.9377415517 3.2219442814 3.5846182474 3.1616437691 3.6877955624 3.4327537857 4.4976139578 
5.1951747636 3.7349672965 4.3492138862 4.3761080434 3.8028656053 3.5553170553 4.0417314639 3.9887841487 3.7481792672 
3.1615929829 3.9144950658 3.3098626309 3.4971798178 3.3910750543 3.7991164423 4.6820989718 3.8771902438 4.2507136356 
3.9552810708 4.1155710968 4.1392860416 3.3526461677 3.1701666941 4.8322225909 3.7969588971 3.4049804662 4.154283574 
4.420576825 3.8318139731 4.0346168897 3.9728066439 4.2387484415 4.2243494813 4.1104757837 4.1742582944 3.5189119081 
3.8626544639 3.0989312009 3.5011473809 4.8404422104 4.7786213937 3.6380630656 4.017708864 3.1740957372 3.4143491356 
3.318533769 3.7004831598 4.0509197751 3.8200063552 3.8445377874 3.5973554675 3.1092965381 3.8937791334 4.7287252415 
4.0717524119 4.0495011787 3.5077481048 3.6095194714 3.1920585186 6.9678429116 3.6053015868 4.1142442987 4.3139278442 
4.9209389435 5.8011995925 3.8575463966 3.6861572022 4.4281211786 4.282820835 3.472445812 4.1361710374 4.7021924384 
5.3869846083 3.7248566134 4.3308856338 3.4111740477 4.4009298627 3.7739975057 4.0548185673 3.9268568206 3.1765597043 
3.8253076613 4.3280258097 3.4657458134 4.6991981954 3.6335381178 3.973231554 3.3593724111 4.143668783 3.6783299472 
3.5389406629 7.271107459 3.7376460518 3.7327737692 4.4852893589 3.2545697793 3.6014970741 4.0646008701 3.2271267962 
4.2148318564 3.3369281875 4.2613451504 3.2733744155 3.9828198002 3.1811024057 3.1210421452 4.5183378501 3.601098261 
3.2512357118 3.673876439 3.3013827881 3.558022896 3.6147061242 3.6085104476 4.0623675344 3.0963957429 4.0944103337 
7.286473103 4.8191450436 3.3845917696 3.7297757222 3.7464447841 3.6119748341 3.7781167306 3.5923422325 3.462853435 
3.3681840336 4.5202251204 3.5796217153 4.008104382 3.6718812248 4.2519474269 3.3728407265 3.8943269938 3.4843982444 
3.3394366567 3.3127552353 3.8866478892 3.3137760909 3.8277374504 5.0463598472 3.8783581918 3.561404083 3.6383321173 
3.3911995664 3.519306937 4.6327788475 3.078669791 3.5935429334 3.449666872 5.5160790384 3.5465041419 3.7047761203 
3.5833232687 4.3873511936 3.9074962426 3.6390203445 3.2487613505 3.3369012584 3.3609349652 3.4268368185 3.7625346892 
3.7795476695 3.7605679924 3.3962266987 3.7562956188 3.246544577 3.7687157154 4.9410370944 3.3553378222 3.4692856624 
3.4713625416 3.9173436435 3.5137461752 4.957705889 3.0298091889 3.4844693442 3.7227481846 3.6327826211 4.0112185678 
3.8954380876 4.343289573 3.6959136113 3.731257257 3.511138374 3.9645359019 4.3581312546 4.9535377266 4.0682191026 
3.6260692178 3.7335152985 4.7066748987 4.4618792793 4.0100184721 4.0070522176 4.199549237 4.0432177491 5.0236886346 
4.6430571879 4.9897643284 3.5958763234 3.6858557225 3.7798690552 4.4537359237 3.7998879486 4.507603943 3.6469620233 
3.3567790957 3.9954425202 3.8100924278 3.6761951809 3.6737375853 3.8005644116 4.5272520191 5.0697029654 3.7532159896 
4.028662956 4.3810789447 4.0382948565 4.6767837402 3.7904982943 3.9227422354 3.8707643204 3.9378456556 4.3258804203 
3.5343985812 3.8017691568 3.8995274293 4.5357337577 3.7777690762 4.2557218704 3.1709993641 4.2779636439 4.0247018578 
4.4686690326 4.7720284119 4.4631945748 5.0644816655 5.0271974104 4.1373188157 4.6178682124 3.9885379062 3.8036449407 
3.5233403876 4.7220027211 5.9647242519 4.6301396107 4.162536417 5.0326926839 3.8401745076 3.2881675608 4.4852594182 
3.6857368111 4.2150503347 4.0103035254 3.9486295039 4.6817213381 3.4882379528 3.6636004069 7.515668823 3.3979335376 
4.9601389369 4.3042234536 4.814896513 4.8145395896 4.4231133275 4.0356477373 3.3894038413 3.3780067969 3.4020613188 
3.7901341504 4.0810648808 4.7446817481 3.3491182531 4.0121014218 4.3077146792 4.2005438832 4.5904529087 4.0124575936 
3.1882902834 3.9877802836 7.5763933305 3.2480619274 4.5195662326 3.4019792713 4.0136658034 4.6643038325 3.766911933 
4.0122369196 3.2065976021 4.2791609388 6.2059879832 3.7148603333 4.3972988526 4.1628184925 4.3694266732 4.2271862425 
3.6422387062 3.5978403137 4.460170052 4.84832382 4.0141529855 4.1734353915 4.0066228163 4.4615418493 3.7380268566 
4.4301575242 4.1169116006 3.9816403166 4.1143601016 3.4421864272 4.1733179283 4.0198776107 3.357419846 3.3361095003 
3.4534741022 3.7917623366 3.9960479329 5.0712078731 3.3026819107 3.4797054685 4.1175457997 3.8072606131 3.230962863 
3.5685489253 3.6452680803 3.4404848585 4.1663987489 3.8573177542 3.3380155782 4.1838755923 3.3846748525 4.0678273298 
5.377837838 4.2583134168 3.3148237137 3.4601229617 3.614810945 3.401789331 3.8681036009 4.7300620606 4.1209431201 
3.423236829 4.3148941131 3.7115324689 3.5678111372 3.9823636692 3.6624396933 3.3997142625 3.5586662582 6.5238831071 
3.7846103571 3.8726570338 5.24789602 5.0130363665 4.8839944619 6.3940104824 3.7670024439 5.441054782 7.4556865325 
3.7884151107 3.4487072935 3.8177963284 5.7993387615 4.9556104504 4.4972776938 4.8343331965 3.8759223835 3.7719273914 
3.469511046 3.8326347235 3.1302990859 3.3252049659 4.261840013 3.5947892775 3.4061230647 4.4486433489 4.3617714017 
3.606555542 3.4320456221 4.6790166553 4.2336395588 4.1953092003 3.8180103398 4.4187113969 4.5111142419 3.9885551609 
3.5234669687 4.1542006797 4.1016080307 4.2900946541 4.1552063374 4.0083462111 5.7741746591 3.5715900863 3.2722250748 
3.3220688334 3.9472310197 4.2768458748 3.565948109 3.8472160715 6.4861553278 4.3835348747 3.9077794795 5.2328353321 
4.4315639437 4.3772354634 4.0794452344 5.0691316082 4.1686239712 5.117776975 3.6365246629 3.8960255732 3.6871871066 
5.5882405867 3.7817765063 5.3038752793 3.148355811 4.1251221949 3.8691834731 3.5207352451 5.6505273145 3.166726674 
4.7901825352 3.6350298295 3.8463618788 4.952600743 4.2976450869 3.9133349386 4.3673418598 3.5920096375 3.9278394701 
4.2385834656 4.3875221622 4.3124613883 3.4785208622 3.9198767248 4.3754001934 4.265712124 3.3573117816 3.3541291458 
3.9134610848 4.2891712247 4.4419163897 3.9183661755 4.6777242138 4.0134699221 3.3711218784 4.2558179016 3.564835849 
3.1470736194 3.9593703728 4.358590718 4.2288961382 3.3622036047 4.5031666823 3.152557801 3.2435695356 4.1721696319 
3.608980365 3.4033218584 3.3394278004 3.5671123007 4.089419836 3.589661896 4.463145612 4.5886744618 3.7632054813 
3.1654515613 4.333240491 3.5801737564 4.3767697356 3.5824930782 3.5174121415 4.2116683727 4.4569288752 3.2820622552 
3.9468775657 3.1583506602 3.4544928966 3.1316232215 3.3022738764 3.9706696198 3.8072840229 4.3311058137 4.482949592 
3.9748849845 3.9545162001 4.4774834807 3.8998158437 3.4932338612 4.0501938958 3.578845537 3.803307108 3.3870744027 
4.1860725402 4.6607542196 4.2255445437 3.5928258255 4.1329236082 3.5891961016 4.1205226865 3.1948696909 3.2798977597 
3.8148701773 3.7239651233 3.7290777237 4.1007328609 3.3446874418 4.0517110088 4.981727588 3.8935436888 3.3862002649 
3.9054935509 3.3740413177 3.751376943 3.473123288 3.7760671621 3.2905799353 4.0787773648 3.799858893 4.3761307107 
3.8312747699 3.8499780317 3.4761956776 3.6412267206 3.7360067013 4.3507910178 3.7990679295 3.8432902662 3.6807287455 
3.490601105 3.5254083678 3.6876807844 4.5203515213 3.7457305631 5.1978094437 4.0136565087 3.376408848 3.4848419483 
3.8058108752 3.4828595848 3.7926315546 3.7122746575 3.2837605902 3.6870439409 3.682670573 3.9153416332 3.8495096544 
3.478169446 3.6882388858 4.4424129331 3.8721253294 3.2990206686 3.9552885484 3.5817076088 4.6708446259 3.1453361541 
3.6539222056 4.1096126861 5.5961212438 3.7546442756 3.4816726134 4.6183037409 3.5932107291 3.6491042432 3.2988594331 
3.5392222979 3.8729520699 3.9553466067 3.1887738358 4.261202551 3.4692185474 3.522545735 4.183959826 4.1125836908 
3.4230682266 3.948843785 4.1788157809 3.7010064985 4.0701019635 4.0230394687 4.1801894244 3.3426173768 4.1639381091 
4.5976676052 3.5004044814 4.1124692004 4.2135044764 3.2431965716 3.7136348322 4.495378946 3.968615417 4.5473164789 
3.7157261023 4.6935129288 4.0139394753 4.7519751625 4.3196294529 3.723685954 4.1860080984 4.5830493917 4.3389803576 
5.0228443151 4.4454610177 3.3752298096 3.9976439759 3.3273680407 4.321089981 4.4667297444 4.2962592829 3.2826549149 
4.2217716843 3.5463578241 4.0381175586 3.3521190238 5.1127605098 4.3387698552 3.2305128272 4.6130124311 4.1424326589 
4.2549784958 3.6871458599 4.3838757682 3.239146326 3.6494499221 3.5527789104 3.9167094158 3.5353136198 3.6549307269 
3.3461768782 3.2733385337 4.5456335383 4.044698496 4.2516954133 4.3901341441 3.6652260704 3.5119006126 4.8776676617 