# vtk DataFile Version 5.1
vtk output
ASCII
DATASET UNSTRUCTURED_GRID
POINTS 4610 double
-0.72361999512 0.29377998352 0.17328001022 -0.70057998657 0.28945999146 0.077200007439 -0.7001438958 0.19754193868 0.12219700108 
-0.69439245962 0.39187846615 0.12939446566 -0.69482009888 0.13722000122 0.19296001434 -0.67490005493 0.34529998779 0.1736000061 
-0.67426002502 0.42881999969 0.081520004272 -0.67259443409 0.40031496991 0.064595736171 -0.67420379777 0.13842866433 0.098812272127 
-0.67146003723 0.37113998413 0.037760004997 -0.66666000366 0.27809999466 0.2099200058 -0.66498001099 0.45697999954 0.086480007172 
-0.66290008545 0.13593997955 0.22975999832 -0.66433399708 0.028667468838 0.19565351984 -0.65767452765 0.53178400882 0.049409550511 
-0.65242004395 0.25945999146 0.0032800006866 -0.65380755657 0.067492090024 0.2314200636 -0.65034004211 0.081219978333 0.087119998932 
-0.64753997803 0.5138599968 0.080480003357 -0.64599575775 -0.019340019226 0.21757234978 -0.64634002686 0.18697998047 0.23168001175 
-0.64538538039 -0.018627011246 0.17823102369 -0.64386001587 0.0057799530029 0.14272001266 -0.63678206353 0.36721541028 0.16614897245 
-0.63657442196 0.55534355991 0.015807966362 -0.63746002197 0.59834001541 0.025280003548 -0.63730003357 0.48001998901 0.034800004959 
-0.63674003601 0.46145999908 0.11736000061 -0.63042003632 -0.019340019226 0.16776000977 -0.63034004211 0.0013799667358 0.2398400116 
-0.63315997891 0.51711641105 0.029300530955 -0.62272214226 0.38901596513 -0.014557999051 -0.62442001343 0.12817996979 0.038720002174 
-0.6229068574 0.5419243575 0.074008691819 -0.62106002808 0.39993999481 0.15767999649 -0.61790457787 -0.018668535118 0.24316066255 
-0.61258003235 0.51729999542 0.0060800004005 -0.61117936507 0.011621510199 0.098134765686 -0.60914001465 -0.019340019226 0.18336000443 
-0.60906002045 0.62770002365 -0.027920000553 -0.60706001282 0.65977998734 -0.018159999847 -0.59354003906 0.28745998383 0.22079999924 
-0.59218002319 0.65538000107 0.068560004234 -0.59154003143 -0.019340019226 0.23688001633 -0.59154003143 -0.010220031738 0.13552000046 
-0.59106002808 0.48497999191 -0.017199999094 -0.58398158064 0.04000150368 0.26649470222 -0.58774215353 0.087326616115 0.2609768446 
-0.59142412437 0.55803566253 -0.01980854344 -0.58562004089 0.47121999741 0.13631999969 -0.5863030412 0.18188288475 0.24660721944 
-0.58213615127 0.61935089577 -0.044100981906 -0.57981742539 0.38542181525 0.18113934303 -0.57354979151 0.5358893633 0.086131289162 
-0.57322002411 0.36153999329 -0.015920000076 -0.54905263916 -0.019340019226 0.19175176572 -0.57002002716 -0.015260009766 0.14288000107 
-0.57118491745 0.27714514163 -0.00077202354835 -0.56724865882 0.70762136203 0.00991964097 -0.56426002502 0.73042001724 0.1050399971 
-0.56319839369 0.16626175541 0.028920121922 -0.56214868565 0.5833330408 -0.051925194398 -0.56010002136 0.67466001511 -0.048720002174 
-0.565905483 0.51830751843 -0.038988558536 -0.55631050115 0.079354196381 0.055389312231 -0.55386001587 0.54017999649 -0.049120001793 
-0.55066001892 0.016979980469 0.075440001488 -0.53905007248 -0.019340019226 0.24277383365 -0.54585056707 -0.0068827434104 0.26462164225 
-0.55089062003 0.48538005835 -0.038940997476 -0.53002437225 -0.010677259887 0.091494394512 -0.53618003845 0.3974600029 -0.010399999619 
-0.53538002014 0.58058000565 -0.054079999924 -0.53679950273 0.50042014747 0.12062784238 -0.53113830262 0.44008898503 -0.025672007729 
-0.52122562156 0.76286271107 0.023851824619 -0.52102818092 0.84504220992 0.060543500345 -0.51900408534 0.069341979867 0.29871751274 
-0.51874004364 0.48274000168 -0.051280002594 -0.51480456289 0.32125967968 0.22211303378 -0.5157000351 0.57129999161 0.080799999237 
-0.51370002747 0.40081998825 0.17888000488 -0.5108971753 0.22453717568 0.27079385282 -0.51517715925 -0.019340019226 0.1484079564 
-0.52806132924 0.13082451997 0.28992000723 -0.50200234972 0.10768725706 0.31338887742 -0.50011634123 0.53617448 0.085387495269 
-0.50809812732 0.11431921289 0.0387169199 -0.50114682229 0.62776385107 0.11702039719 -0.50386001587 0.04705997467 0.026800003052 
-0.50224453341 0.19807688498 0.030772236103 -0.50042003632 0.8293800354 0.028720002174 -0.49652744733 0.74189586161 -0.042690908685 
-0.4923400116 0.29986000061 0.013840003014 -0.49154003143 0.48313999176 0.13263999939 -0.47629156511 0.087886380593 0.31616205567 
-0.48282001495 -0.011980018616 0.011760001183 -0.47418003082 0.67657999039 -0.034960000515 -0.46407020263 0.56308067909 -0.037060170606 
-0.47210002899 0.71210000992 0.14392000198 -0.46914001465 0.90513999939 0.056080002785 -0.46879474035 0.062925947099 0.013013660248 
-0.46802001953 -0.019340019226 0.24616001129 -0.46636476678 0.14098198692 0.024352949699 -0.46346236402 0.22143376419 0.019249988877 
-0.46410003662 0.0016199493408 -0.010959999561 -0.45722362677 0.2932812483 -6.4494325015e-05 -0.4574296419 0.45332046426 -0.037448677685 
-0.45668334881 0.35835725654 -0.019038304978 -0.45498001099 -0.019340019226 -0.011439999342 -0.47631480612 -0.019340019226 0.12719346429 
-0.45514959412 0.0036898831735 0.29564347645 -0.44762001038 -0.019340019226 -0.041840000153 -0.4459400177 0.074419975281 0.32272003174 
-0.44214356702 -0.019340019226 0.090971833113 -0.44486671546 0.34645168929 0.21734935231 -0.45431915381 0.50958968689 0.10931405586 
-0.43540093254 -0.019340019226 0.047937562169 -0.43882003784 0.80602003098 -0.035120000839 -0.44249761424 0.39176922751 0.18266709428 
-0.43562004089 0.94674003601 0.011280002594 -0.43658251597 0.86484744846 -0.016631969147 -0.42785686492 0.27089186933 -0.012672764624 
-0.43370002747 0.002739982605 -0.026560001373 -0.42884548768 0.44592493473 0.14695464162 -0.43374818548 0.73016691667 -0.042694010599 
-0.43306003571 0.28633998871 0.28304000854 -0.42294017432 0.20882096596 -0.0013146490376 -0.43123149124 0.063782907446 -0.0051592931925 
-0.42062067419 -0.019340019226 0.27610670126 -0.42191368959 0.14852998776 0.0034999922489 -0.42530002594 0.21361997604 0.34848003387 
-0.42012313252 -0.019340019226 0.15254400426 -0.41894855839 0.35704203829 -0.027847926081 -0.41906002045 0.82258003235 0.11752000809 
-0.41130001068 0.65618001938 -0.028399999142 -0.40904386229 0.52874289579 -0.03280462146 -0.40642002106 0.47233999252 0.13248001099 
-0.4061000061 0.4238599968 -0.035680000782 -0.4024200058 0.52562000275 0.11288000107 -0.3923400116 0.69946001053 -0.036080000401 
-0.39419898412 0.61353768306 0.13857163614 -0.38850002289 0.1089799881 0.34000003815 -0.38730003357 0.77922002792 -0.048480000496 
-0.38454443701 0.4240836849 0.15341485178 -0.38490001678 0.00033996582031 -0.08408000946 -0.38015214752 0.25184957513 -0.026673270078 
-0.38306138456 -0.019340019226 0.2317209576 -0.38466081909 0.99093677557 0.022830854607 -0.38452113857 0.61045533666 -0.059365542105 
-0.38170646468 0.05673258285 -0.057741441802 -0.37628909272 0.19089232719 -0.02128620731 -0.40378817427 -0.019340019226 0.08958774908 
-0.38297577896 -0.019340019226 -0.089353221214 -0.37858001709 0.012739982605 0.3120800209 -0.37722003937 0.46521999359 0.12328001022 
-0.37690002441 0.65969999313 -0.057840003967 -0.37682003021 0.31585998535 -0.042160000801 -0.37521522471 0.51568668505 -0.067157098386 
-0.37741207898 0.12555626055 -0.031850530261 -0.37322002411 0.8425 -0.034320001602 -0.37593122742 0.4170409932 -0.057712467635 
-0.3659400177 0.36161998749 0.18048000336 -0.34625418495 -0.019340019226 -0.056009557708 -0.35787871066 0.58705295021 -0.11658759103 
-0.35738002777 0.40361999512 0.14304000854 -0.35490001678 0.71857999802 -0.054320001602 -0.32494461768 -0.019340019226 -0.0054245135914 
-0.35477531925 0.49710386187 -0.10362981001 -0.35282001495 0.29969999313 0.2236000061 -0.3523400116 0.47209999084 0.083680000305 
-0.35146003723 0.27033998489 0.28512001038 -0.35037552287 0.22659101637 0.32986264169 -0.33499431086 0.91576833947 -0.024122865524 
-0.35010002136 0.72289999008 0.16280000687 -0.34722000122 0.53929998398 0.098640003204 -0.3472107831 0.39386215859 -0.087158861073 
-0.34687226924 0.40068004923 0.098199621536 -0.34356497798 0.59506787433 0.12493258947 -0.34191305952 0.11872161958 0.33017985087 
-0.34442295593 0.31138814323 -0.063370744256 -0.33810001373 -0.0025400161743 -0.13336000443 -0.33658000946 -0.019340019226 -0.11392000198 
-0.3358600235 0.87050003052 0.11064001083 -0.33458000183 0.47681999207 0.042640004158 -0.33442001343 0.047859954834 -0.10768000603 
-0.32923823815 0.71428383673 -0.097366781285 -0.33402000427 0.21113998413 -0.039200000763 -0.33386001587 -0.019340019226 0.28200000763 
-0.33375305745 0.38027779432 0.036392832808 -0.33170001984 0.015219955444 0.30520002365 -0.33166002274 0.36917999268 0.044640002251 
-0.33066001892 0.15657997131 -0.043039999008 -0.33034004211 0.10865997314 -0.067440004349 -0.32685734626 0.46310842197 0.029354484152 
-0.32375707529 0.46033275737 -0.10478248691 -0.32391418499 0.79883903433 -0.047031673481 -0.32202003479 0.68882001877 -0.12552000046 
-0.32148242673 0.34786201751 0.057866360729 -0.32153999329 0.65042001724 0.13256000519 -0.30758316296 0.52818453133 -0.11167861295 
-0.32074001312 0.99210006714 0.040960001945 -0.32469152432 0.33306258818 0.16901731881 -0.31771105941 0.28670979417 -0.077477314882 
-0.31606619839 0.74674643626 -0.092759352833 -0.30374298452 0.30717442737 0.11878137739 -0.31369430344 -0.0028651959588 -0.12374198551 
-0.32011367236 -0.019340019226 0.21161431035 -0.31459624499 0.042013014258 -0.11045126017 -0.31480420782 0.20005632098 -0.060510573828 
-0.31533591497 -0.019340019226 -0.10755369139 -0.31060626656 0.10008903968 -0.083871259588 -0.30432549255 0.44485567007 0.045166892603 
-0.3108200264 0.14281997681 -0.065040001869 -0.31018001556 0.57929998398 0.075040001869 -0.30874048021 0.57271347156 -0.11730724938 
-0.30850002289 0.6674600029 -0.1299200058 -0.30554000854 -0.019340019226 0.045200004578 -0.30438656676 0.70872859334 0.13505749772 
-0.30290000916 1.0223400116 -0.0054399991035 -0.30274002075 0.77705999374 0.14576000214 -0.30146001816 0.11529998779 0.29815999985 
[...]
CELL_DATA 18198
FIELD FieldData 1
color 1 18198 double
3.6030284 4.170488447 4.6143953744 3.7985065239 3.1759435788 3.5548844765 3.899130782 3.778378233 3.8957746082 
3.3253265464 3.4002685639 3.9423520602 3.942009841 3.6935874885 4.214366649 4.3325026454 3.9318477492 3.107122415 
3.7015210118 3.4855234564 3.0978979616 4.6667055962 3.4959069557 3.6222405503 3.4339143094 3.5113551485 3.5270112363 
3.5251192808 3.122540906 3.8665289116 4.2728907128 3.9249434441 3.6544867533 3.4129846764 3.6944014492 3.3531752807 
3.8482247049 3.5601229562 4.3826151777 4.527859005 3.8849020118 3.8300829247 3.9000259252 3.2800650197 3.3807705229 
3.5275236832 3.1605521578 3.4461960596 3.4285766426 4.3242691925 3.5957827802 4.4230870268 3.5587689808 3.8504587377 
3.6726697691 3.358820398 3.4007459722 3.2814688908 3.6279916941 3.5976700274 3.9340724497 3.9224112153 3.9333428016 
3.7927710865 4.430565041 3.2446822643 3.3646475408 3.1844129243 3.8389448827 3.3076908952 3.3674412529 4.2241599271 
3.6661099362 3.5823868372 3.5888853625 3.5203895032 3.614333937 3.2965508949 3.2220401499 3.5806210627 4.448183307 
3.6775120287 4.8917903388 4.4286264604 3.8419708606 4.3770826177 3.2171001648 4.4867751944 3.998275208 3.7944113854 
4.6426497654 3.8551445633 4.1867081602 3.87739557 4.0121501265 3.2574817738 3.344015367 4.48228779 4.2876198396 
4.1705756502 3.9644918732 4.9363478717 3.9595596574 3.5066071259 5.2428426721 3.5710441482 3.3805193752 3.4157565929 
3.3162675323 3.4340484332 3.855146163 3.4432796385 3.4774053289 4.4734323495 4.1389349027 3.4149905246 4.0520571141 
3.1316196606 3.806484239 4.3850874502 3.3049388658 3.9098653278 3.6262246625 3.7711697064 3.5328128529 3.3364100974 
3.562744274 3.5978452333 3.4230967814 3.5483826862 3.6517502946 4.1846278687 3.7063312196 3.4808258065 4.4426251073 
3.737819931 3.9307158848 3.2786742345 3.3142599509 5.4552674376 4.73596834 3.2887785816 4.6578443729 3.3908449761 
3.7353337195 3.8701432487 3.7748768586 3.9146318454 3.7093179776 3.3044711298 3.5194708689 4.2799453245 3.3286129357 
4.4343821239 4.0240580829 3.5794528654 5.0503207196 4.2674151249 4.0463826323 5.3424128024 4.4270290586 3.1823695884 
3.9746706322 4.2548836356 3.8056589348 4.2473344746 4.1712687689 4.1946380606 4.0601580302 4.1453033818 5.8872275214 
3.7578787869 4.0737605182 3.7291779408 4.5543692123 3.5080956219 3.5778407053 3.5907093579 4.83049618 3.9197256041 
4.1297416547 3.6160619141 3.7519612659 3.8970433889 3.0638343361 3.4901922485 3.4577601423 3.6337931346 3.1053835662 
3.452013124 4.0091291919 3.8088291753 3.5814602403 3.4063334259 3.2020710262 3.8812875481 4.6513974016 4.103801447 
4.4697909076 4.034468997 4.6175107913 3.2803666066 3.9778932644 3.5820973165 5.8550247231 4.3542669795 3.4857483453 
4.9427904307 3.3196434904 3.8382523855 3.8515889486 5.1608339479 3.7058030924 4.9197155824 4.3148279977 3.5471904898 
3.3319412815 3.5014745977 3.6948354648 3.635889549 3.8528934215 4.075241778 3.7822041406 3.2887812501 4.119406392 
7.1501741353 3.5613032731 3.1791032058 4.024754737 4.2745399965 3.9828040598 3.1369555078 3.6318875622 3.5948010249 
3.3311916027 3.433809295 3.7870878283 3.6969979042 6.9522068676 3.3142388285 4.0616267917 6.7253037978 3.6746501228 
4.3227811073 3.9885271661 4.9833308376 3.1858306808 3.9993190558 3.4083561822 3.1324597752 5.4022165628 3.4537156642 
3.3714783588 3.495107197 3.2669159417 3.2196918541 4.030104805 4.8043131662 4.4981686083 4.0330609112 3.491914251 
5.0104095071 3.8062396965 4.2034271297 3.2878109815 3.5302892672 3.3748083349 3.6483358545 3.2849295981 3.3844171666 
3.2831092868 3.198334216 4.1544531999 3.3692791997 3.7858692421 3.1931324445 3.3757805256 3.2025338824 3.5442986612 
3.1389201785 3.6130432425 4.7517285125 3.9273150989 3.6282943269 3.9782242838 3.3283641563 3.2644783239 3.4932552489 
4.0361250746 3.2722154752 3.3589426451 3.8135556533 4.0573164977 3.7117065163 3.4976650451 4.4909732015 3.2363128875 
3.9496093894 4.6870209477 3.346412116 3.7754630966 3.1035757335 3.2821198817 3.7208370091 3.390597852 3.4561199705 
5.8958612425 3.0536437846 3.4581178266 3.3130339811 3.3259170927 3.7914977354 4.1067008356 4.4944783364 4.1843451796 
3.5942605301 3.3329379881 4.0409323832 3.2827350258 4.3092017579 4.5455724619 3.250643022 3.3527091986 3.7517844763 
3.3240426228 3.4538867733 3.380952675 3.288791449 3.6534941113 3.1641288318 3.7751080513 5.8080894161 3.2772255329 
3.1188513619 3.3429099447 3.2448159444 3.518066784 4.6376331435 3.5437978023 3.2888351864 3.3958105138 3.7974129673 
3.6733447495 3.3348045985 3.110834037 3.3521362642 4.3160622767 3.2699665378 3.6780041667 3.1041975716 3.6359071516 
4.0675300843 3.2488238366 3.2932067389 3.1030474969 3.1843852973 3.1743069537 3.5185038579 3.3388675537 3.9536403919 
3.9109337806 4.585431431 3.8220131767 5.1700835501 3.633733872 3.1074092195 4.3831163098 4.0012634821 3.0852489894 
3.1554321158 3.1389285377 3.1296542694 3.3719037698 3.6217546273 3.1068597813 3.3542735598 4.0735365845 3.9337535544 
3.774203848 3.982014842 3.3345026568 3.2310596219 3.336234752 4.9102773683 3.4829881006 4.5657887405 3.8693443105 
4.1129164917 4.0509013307 3.5736986826 4.3306060744 4.42845662 3.7458260521 3.5031414559 4.1815318972 4.7575014411 
3.6842932658 3.7513077191 3.4630582447 3.9785847857 4.611006021 3.4221586478 3.9318139338 4.5611324756 3.5732418239 
3.5850020431 3.6631202546 4.3692892458 3.6191845159 3.9201358254 3.1682299545 4.4672449173 3.8461621275 3.524155581 
3.4546223725 3.9426156087 5.007545204 4.5013075551 3.7687600334 3.8741300599 3.7537608243 3.4079217186 4.0810544195 
3.9359063856 3.2942248194 3.3557454524 3.6914018217 3.4054462547 3.1161695186 3.9821074599 3.9612996595 4.7413311727 
3.6241539601 4.964796733 3.6920375174 3.6388258244 4.2611703536 4.4148753685 3.9730128893 5.2830088914 4.4110376728 
4.753832355 3.3359940893 4.1119768649 6.84532049 4.6745658566 3.4849955494 3.6401638739 3.5035477369 4.2936795799 
4.843567941 4.2325184846 4.1486467837 4.1017259555 3.9939578042 3.2359287478 3.5187044057 5.1173012379 5.0794133072 
3.9913395674 3.3317223825 3.7772660601 3.2519192862 3.1942492584 3.5066261411 3.9458937289 4.1551908362 5.2134021058 
3.4541980727 4.0485298127 3.4993452094 4.1286905772 3.8654267845 3.7374274392 5.2571246157 3.6995406345 5.3422022987 
3.5539783189 3.1046672596 4.2429303085 3.8889769168 3.7770442741 4.1756648167 4.2703099639 4.6152932103 3.6753021837 
3.8732763194 3.527568012 3.8821522084 3.284870467 4.0287983757 3.1104518596 3.1517504109 4.0272649903 3.9483785744 
4.1744360995 3.7075712443 5.4507747862 3.8127446918 4.8203978111 3.8219868798 3.9329989867 4.8754957749 3.2346792339 
3.7072025971 3.9168064629 3.9018916856 5.5945546152 4.6901960681 4.1586261876 3.7780409025 3.7403462852 3.6030088839 
3.7270860097 3.527745658 3.9722194075 3.5434486865 3.4998133578 4.0466223934 3.7533658345 4.3583152309 5.4072150546 
3.7918302575 3.4070003964 3.7690990912 3.6010147826 4.4871995243 3.3906170323 4.7462414511 3.3589987256 3.2916390013 
3.8794172488 3.274472632 3.7614077959 4.0238050286 4.0517411259 3.2552148321 3.8573211513 3.149978043 3.9143247953 
3.1737591912 4.329511965 4.4904374661 3.1324675668 3.5161292744 4.7852396403 3.2407026773 4.2718934115 3.5914790504 
3.5516438434 3.8845120499 3.6979268191 3.2663615061 3.2717826717 3.3979680219 3.4922839461 3.6168270887 3.9286867745 
3.8770898942 4.057360203 3.347015525 3.9923800012 3.3922868976 3.7685724032 3.1754291258 3.4989748127 3.5840018039 
4.5535875283 3.6520611282 3.7168311274 6.6387509493 3.2291208867 3.6782189674 4.7131431409 3.4406070291 3.3131662282 
3.2055214067 3.5651039592 4.9820918609 4.1093286089 3.8611676992 4.0605869706 4.6849469704 3.4502724484 3.1975003834 
5.1588940267 3.2050314766 3.1644112909 3.1751987623 3.3153835909 3.7753367424 3.7313000687 4.4141985993 4.5584555137 
3.2229813408 3.5090745721 3.4309474382 3.3913569667 3.8391137645 4.0621282363 3.3662569696 3.2689317859 3.1849431312 
3.3597484752 3.4023807869 4.1782746723 3.7704490581 3.656314425 4.5901836943 3.8632335471 3.6276849234 3.2729472029 
4.5316192073 4.2624711189 4.4606046356 3.64539599 4.1629204925 3.2426907011 3.2367798037 3.3401544277 3.3027179658 
3.1345635596 3.9555422646 3.7809986257 3.1353781173 3.4933502812 3.8302385075 3.9498513638 3.1939269784 4.0088841543 
3.1853238337 3.3030030132 3.2069176349 4.3462679999 3.4278962559 4.1849440516 3.4696140508 4.2561878102 3.2072149321 
6.1254855411 3.2732314914 3.5183171337 3.5253040017 4.1919714648 3.7004269145 3.9232328181 3.6678327282 3.3185534007 
3.9562652399 3.485904826 3.0966130635 3.5588142608 4.136660674 4.4496779284 4.0799385555 4.4429374383 3.8658452632 
3.5919775309 3.6415441314 3.3260459266 3.7517837917 3.8782049644 3.2610739215 3.127810308 3.5132795617 4.0467136509 
3.9128136784 3.5333668174 4.6093947178 3.4272350103 6.5078310893 3.4248684928 5.4325216361 3.1837711446 3.2373134828 
3.4462394181 4.3240933629 3.5853215881 3.2462203493 3.3074598799 3.6450537527 3.9209544331 4.5409176613 4.1719831142 
5.2683575238 3.227215485 3.7524917341 3.6570139979 3.3415856374 5.6595836823 3.7068764745 3.8772185497 3.3584964079 
4.2005194362 3.7303689394 4.583010449 4.2177001074 3.8743348396 3.7081803988 3.281515025 3.6143819947 3.1586303389 
4.2753322723 3.4713312087 4.4024550416 4.1261153874 4.4737291035 3.1689344714 3.6767503741 3.6610214116 3.4150504036 
4.4957732059 3.7403232311 3.422713517 3.4146238959 3.5125866786 3.4511948957 3.8680379967 3.5098618703 3.0765698055 
3.6817865596 3.1758766448 3.2869757431 3.3735605613 4.2369848505 3.2506895487 3.6882710405 3.2141170785 3.5603777923 
3.4777800358 3.380124246 3.626757155 3.5431596848 4.1769987455 3.6323804014 3.1093976215 3.4492545299 3.9574215955 
3.6198023618 5.2244393701 4.1147361141 3.2703317255 3.7878037851 3.3833916499 3.8907274405 3.3457328109 3.4771228861 
3.0763601103 4.0420804331 3.8656829764 4.4234903993 4.8222202433 3.580716177 3.6439015068 3.1513550369 3.5439597822 
3.1869970784 3.7853625029 3.364324892 3.9651143336 3.5663653068 3.9246163315 3.5984176109 4.4894724588 3.2196324349 
3.3096003751 4.0544152269 3.4069183098 3.4149547733 3.8597925711 3.9152549812 3.1592591827 3.8688318795 4.0577260609 
3.8749693177 4.5013869781 3.6230110285 3.4673655607 3.6828200586 3.7467655293 3.2697931882 3.8406646984 3.7889262553 
4.1420004637 3.5471612794 4.4075325486 3.5936890168 3.4554671935 4.6285045891 3.3534543665 4.1115899068 3.8109562882 
3.3838742067 3.722451427 3.3426236862 3.3208063896 3.5921405177 3.099858697 4.0155633003 3.9845657043 3.441641124 
3.8767866958 4.7736333741 4.1788576514 3.4503872519 4.6263630538 3.2197045672 3.3444630795 3.2579899176 3.1311501736 
5.351946965 3.2283450949 4.2308123346 4.5768431344 4.9228950263 4.511399756 5.3908568386 5.070873968 4.1397299959 
3.8184098931 3.6533189462 3.6219749041 3.7091511347 3.3618766251 3.7595966157 3.4774048473 3.3633324861 3.1595784126 
5.0037333196 5.4146788863 4.7199834375 4.1814775998 3.6672974956 3.6199315061 3.3557455872 4.7052408177 3.3229854652 
3.9443963305 3.2353775584 3.6322962083 3.1543913175 3.3355436999 4.8930116378 3.1408829304 3.2403701767 3.8855276208 
3.6001032753 3.3888684876 3.2232559232 3.7237322195 3.2217569744 3.4340383516 3.2024263311 3.5268179071 4.301320039 
4.85057278 4.7618224682 3.991474393 3.8069103519 3.2593431274 3.8786678207 3.5011981929 4.9653777306 3.1479836398 
3.4280014744 3.6368784274 3.1533606359 4.2532213786 3.7309786743 4.0129594255 5.9501897208 3.1955267687 4.3149119243 
3.77594253 3.5524486686 3.1040182252 3.7308157167 3.3912185045 6.0301264079 3.2661130882 3.3671250422 3.8913091414 
3.4350109606 3.8121998785 3.8389138126 3.9830439314 3.2310421118 3.8781305729 4.1121698008 4.2775934139 4.6482836714 
3.8273275435 3.3185420781 5.5059291386 3.3888175803 3.6603402135 4.9139212467 3.9747082439 3.5232923327 5.9979713033 
4.1728987341 3.9696059747 3.9323815218 4.4727339176 3.5493738949 3.3410093862 3.216274041 3.3838251706 3.1978700057 
3.6175126016 3.126406059 3.4207089119 4.3434470254 3.3533211003 4.7802321005 3.6997838659 3.0786414401 3.2877152077 
3.6213942662 3.1111574545 4.0333025003 3.1637041164 4.3729775409 3.514597134 3.3649318722 3.7838077252 3.4606931523 
4.1020813795 5.8259138341 3.8311088123 3.179634766 3.619541212 3.6333656372 3.2481985911 5.6686579071 3.4652261713 
3.5692687923 3.3702212641 3.3837260098 3.9163426959 3.6189830333 4.2240337835 3.1849308818 4.466218445 3.7589767112 
3.2056441882 6.1240483452 3.3783316936 4.8154851577 4.3022897808 3.2321462567 3.1415396402 3.374145835 3.2223916889 
4.0770037107 3.646438038 3.8859910511 7.5128471764 4.6737509121 4.8317253312 4.2353203548 3.0482584932 3.1796007001 
3.8460623802 3.7054838238 3.0385606804 3.9211416906 3.2816296054 3.5598033157 3.4161356145 3.6236384327 3.1448447449 
3.5400307813 3.7562343612 3.2956026903 3.3764331135 3.3759423493 4.8102897032 4.8020029124 3.1425034986 3.867103754 
3.4970986749 3.2041437202 3.6111423098 4.9807756536 3.7424547561 3.2246241146 3.1432817538 4.246672575 4.9540253664 
3.9241149818 3.8367712218 4.2714600814 4.0926695287 4.1486900824 5.9376532337 3.2553843695 3.5319955947 4.8941865121 
3.2819717875 3.7762130167 5.051598589 4.2140094031 3.636524149 3.5798710233 3.5774189796 3.5609979057 4.051923385 
5.0243792337 3.8034697723 4.9597838175 3.2540242853 4.9675979258 3.4118653461 4.422668039 4.0924501953 3.9363033774 
3.3546043998 4.4044168394 3.2525258979 3.5873930906 3.8875684174 3.3381096805 3.9485513233 4.3972598161 3.3667220755 
4.5756410377 3.2630618731 4.4719486916 3.3008976653 3.7123265788 3.7837176565 3.2373260813 3.6719491793 4.6569718404 
3.3495497853 3.8172526778 4.2412016047 3.4968673342 3.2807451601 3.3099306609 3.2741715272 3.1190212511 3.781478738 
3.5204066483 3.7236368664 3.2848330677 3.3030191996 3.4826979804 4.9246811375 3.7242145512 3.4915883356 3.5229755861 
3.7183212658 3.8986178428 3.1265548129 3.5176475272 3.3589229663 3.1233094495 3.474867751 3.2807784253 4.4976687339 
3.2321607035 3.3004737811 3.1721811189 3.7283809317 3.1724742175 3.5405710002 4.2747307382 3.9250820148 3.9081170439 
3.6566289354 3.8120846662 4.4608024208 4.0214883029 3.5208727046 3.4114068707 3.1490431815 3.7105989378 3.2465477997 
3.8266591652 3.5134267011 3.9809433926 4.0602035055 3.8433478358 3.7002148841 3.6949956474 3.6176955255 7.3234953493 
5.2842254917 3.3385044796 4.1501770322 3.2249132985 3.2403343325 3.2486268792 3.3898504974 3.1710775304 3.4751708224 
3.1929240241 3.2068183786 3.5400426899 3.1665507644 3.0931929536 3.7692038219 3.6410311212 3.6493917359 3.3432236294 
3.242171321 3.4783832213 3.6946607708 3.3605553898 3.5023459171 3.0888713329 3.1248108099 4.0201345784 4.583267177 
3.6273711843 3.5296489655 3.703308185 4.2627312634 3.4269683967 4.4269961091 3.0338150546 3.1319629789 3.407696806 
3.3808565434 3.5512938512 3.7366041551 4.1553009703 3.5406517344 4.5659743475 4.0215033244 4.0461473778 3.4499704256 
3.4343587785 3.4317371918 3.71580117 3.3925783776 4.3384529368 3.742058902 4.4120476471 3.3557978673 3.6712348661 
3.4587469699 3.1173346615 3.5481022389 3.128683809 3.6891342596 6.090245815 3.6551501374 4.9620705335 3.0273447773 
3.0896787592 4.5928638896 4.1826030008 3.5691633256 4.6301024038 3.2235996576 3.3156030897 3.8060917281 4.3442692725 
3.5102102876 3.9480051615 4.4469575807 4.389572112 3.2038146298 4.7936594897 4.0392269991 4.0870949357 3.4751649176 
3.3145659165 4.032679761 3.8156212692 3.2110018329 4.019735543 4.4677990273 3.830285153 4.2278347093 4.2774512949 
3.6798529258 3.7584024931 4.1930690216 3.8015842856 3.2648586769 4.0701045502 4.7230507726 3.3658691171 3.6693167507 
3.7114896382 3.1197594131 3.4779163531 3.9275508892 3.4554969201 4.5980455746 4.0472163962 3.4681754714 3.6289604201 
3.6892776089 3.3443865001 4.8359160611 3.041850644 4.1867224378 3.6495643473 4.3891062793 4.1175549272 3.560057209 
3.604757047 3.8936044827 4.0326988061 3.5492776076 3.3338139983 3.4816537375 3.1565489384 3.8120348967 3.9694640141 
4.0500576924 4.3843833454 3.859806599 3.7262793971 4.2487648812 3.8808535774 3.8715759767 3.6147524042 3.6575285125 
4.2874113382 6.2544435385 3.9267782882 3.2276225809 3.705125141 3.2989482104 3.3428791074 3.8949376513 3.2137431915 
3.4532343008 3.3468739744 3.6227874252 3.5988255156 3.7715158794 4.6418934498 3.5051447543 3.20996204 3.4755409145 
3.1949753881 3.6214265719 3.2295790176 3.4179262091 3.2602600682 3.9600637008 3.5304530471 3.2983733276 3.7127005239 
3.8972143896 3.4921505998 4.509326174 3.624464256 3.4429842147 3.1121331203 3.2894981093 3.6866636419 3.7567888219 
4.7336901274 4.3912837123 4.2026399575 3.6369572761 3.4701570676 3.8705396697 6.0858042492 5.0314904057 4.9083271328 
4.1697086947 4.5367060313 4.0604237075 3.5171171254 4.6941926651 3.5283888537 4.2592736341 3.1572784856 3.8257027557 
3.4343163875 3.6706745618 3.7002786523 3.1413426773 4.0747835022 3.6755140357 4.9086546106 3.1949385505 3.1305764055 
4.3713551141 4.7286545431 3.9599643806 3.1881650107 3.3220985182 3.715985311 3.3303501895 3.8585979132 4.2294563573 
3.9555460576 4.4330374757 4.282488158 5.4135302177 3.1598433437 3.395605503 3.4762338573 3.7830550221 3.7047163198 
3.7653931208 3.392332298 4.1478184007 4.2673808749 3.0907139114 5.0963675283 3.934453244 4.2518729209 4.0057743117 
3.3986895312 3.1158728433 3.4510229554 3.6621478112 3.9414171361 4.4993206193 4.3917006875 4.1230788255 3.4920916232 
3.9843596015 3.6762154652 3.2461666024 3.8346926946 3.5755613781 3.3219035878 3.6446640321 3.2732354582 5.2413809655 
3.9818793991 3.2255214564 5.5981428439 3.5765662334 3.6809553901 3.42606532 3.0626017017 3.5308019612 3.395427924 
3.8822279195 3.253282961 3.7744130836 4.8344555093 3.8511768939 3.9896809174 4.907289194 4.0945461797 3.9931493306 
3.1863173917 3.668091454 3.1104356588 3.1333296835 4.8337062421 4.8069553565 6.2951971076 3.4291220736 4.248765984 
3.4931099338 4.5532454093 3.4462655188 3.4136750455 3.5455596426 3.8219203732 3.3568639813 3.2050280368 3.3364970004 
4.3533277406 4.0386468662 3.9557410646 3.3865078664 4.1477885394 3.2066514934 4.6834781103 4.5003792504 4.0511845332 
3.2272451779 4.0690062025 4.0189790823 3.8721568892 3.3940608365 4.1669065095 3.8207540467 3.5421734276 3.846863292 
3.1164152145 3.3356530691 3.8066633422 3.511475509 3.560214699 3.9189532316 3.752603139 3.7829934807 3.3043419394 
3.3679387603 3.5306842295 4.3552828156 3.3310797088 3.4678255921 3.8701761032 3.2727420504 3.8497233361 4.0903059027 
3.8594566621 3.5043905494 3.936882095 3.8863177761 3.3274474897 3.3996601585 4.1795978616 3.5124751997 3.5759836703 
3.9027122836 3.638119536 4.0864357727 3.9592639783 4.6399853224 5.0834347107 3.9555085648 3.1689583261 3.4163046468 
3.2402309966 4.3172680079 4.8120266431 3.6257455433 3.7721195398 3.6937961403 3.5630521216 3.3298408961 4.0824205442 
7.3744116272 3.7917395499 4.4463342527 4.0502216672 4.0471737661 4.5549546279 3.6664205673 3.8926921172 4.9225775091 
5.2014740842 4.3964910529 3.9269814934 3.4589338736 3.3850492035 3.5899533277 3.4772704091 3.6756937865 3.5527860413 
3.0870752787 3.3952377699 3.1901221758 3.4980607318 3.2600612424 3.8572579838 3.2464487528 3.6240719926 4.0049876449 
3.2408234098 4.2568173156 3.7937386751 3.8431527812 4.0066814239 4.1952215517 4.2602194659 3.2016207987 3.2984412117 
3.7988248543 3.1456935076 4.2140907708 4.229896904 3.2296219988 4.5910101804 3.8095270229 3.2699546119 3.6655990716 
3.2771178228 3.4062713983 3.2546265931 3.2432977067 3.4065673934 3.4160460991 3.5033342164 4.1178315981 3.2502637542 
3.1368681264 3.6276959877 4.0633656445 3.3271603444 3.5084277725 3.5334150318 3.111212789 3.3853559114 4.2411453363 
3.7305301348 3.2604461259 3.3253309409 3.9070778658 3.2999467487 3.2859188563 3.2820210442 3.5888451061 3.990569378 
3.9658679941 4.0673556183 4.5034351523 4.4452646022 4.2383182166 3.7498885794 3.3948355018 3.6159189196 3.0312648498 
3.6621596624 3.4384191662 3.6385117232 3.7619955052 3.4351575027 4.5421233288 3.7000755381 4.3349533195 3.2019297164 
3.3505567109 3.6959463891 3.2640701836 3.6248202009 3.2347448478 3.7285117356 4.277209692 3.1745634989 3.1431609981 