# vtk DataFile Version 5.1
vtk output
ASCII
DATASET UNSTRUCTURED_GRID
POINTS 2171 double
-0.316947155 0.6612946701 -0.047241373062 -0.31266094208 0.62289775848 0.048768658638 -0.31170701981 0.69955257416 0.0061067855358 
-0.3109397316 0.62182180405 -0.046544008255 -0.31081228256 0.5964423275 -0.042918467522 -0.30384233475 0.65070611954 -0.0083864963055 
-0.30183891667 0.71028494426 0.042657988814 -0.30211104652 0.66608019043 0.047717686141 -0.30071241379 0.55863539696 -0.025186131001 
-0.29947083513 0.74183670555 0.072394146852 -0.29931539536 -0.013054885864 0.026520533562 -0.29837223053 0.5735843277 0.025284950733 
-0.2969111824 0.011686477661 0.0046910479665 -0.29492510887 0.70439911448 -0.053169123689 -0.29121049881 0.63549251556 0.099312953949 
-0.28937477112 0.70445352554 0.11375571251 -0.28875079871 0.053031560232 -0.1034725429 -0.28850604454 0.74242021709 -0.0046581163604 
-0.2880663681 0.0091039276123 0.0777861166 -0.28641828537 0.054765663147 -0.0022648982704 -0.28484565735 0.74293811798 0.12313512802 
-0.28442977905 0.55398021698 -0.051910905838 -0.28321281433 0.10359874725 -0.11730490685 -0.28252222061 0.64455638885 -0.11971321106 
-0.28232349396 0.0056894683838 -0.058768930435 -0.28150066376 0.12192337036 -0.17915586472 -0.27949840546 0.60828682899 -0.11725728035 
-0.27811368942 0.097752990723 -0.23308332443 -0.27840167534 0.57966523018 0.080528178533 -0.27615522385 0.53663726807 0.048066568375 
-0.27458066774 0.67520832753 0.11996492423 -0.27397689819 -0.013055000305 0.088744449615 -0.27327514866 0.13048076002 -0.23407183152 
-0.27083878792 -0.013055000305 -0.09260600668 -0.27232650757 0.75005519867 0.042710490227 -0.2700028038 0.73776838303 -0.07420372963 
-0.26988138199 0.51607147217 -0.01878044486 -0.26591060638 0.51826747417 -0.061187558174 -0.26479558945 0.56587183952 -0.11148302078 
-0.26342334747 0.75626375198 -0.018853317499 -0.2630292511 0.66208608627 -0.15315854073 -0.26343292102 0.065924616277 -0.22983136942 
-0.25902109146 0.0036711120605 0.10286529541 -0.25829107285 0.0034902954102 -0.13235404968 -0.25778339386 0.69684074402 -0.13413268089 
-0.2572102356 0.63522735596 0.11967653275 -0.25542230606 0.78242614746 0.0947128582 -0.2553053093 0.80625259399 0.055048818588 
-0.25174583435 0.81805706024 -0.0088998216391 -0.24780049653 -0.013055000305 -0.15234438565 -0.24890245438 0.55510471344 -0.13026156425 
-0.24402708054 0.063168907166 0.015365247726 -0.24296636581 0.77549762726 0.1615225029 -0.24016929626 0.73120887756 0.19033771515 
-0.23769471192 0.13575746025 -0.157477554 -0.23688494402 0.14110370443 -0.26385138168 -0.23354030609 0.73815401077 -0.10392629623 
-0.2335256958 0.4834807992 0.0231483531 -0.23873086186 0.54924861152 0.095974872828 -0.23158401489 0.84515907288 0.02890245676 
-0.22972101212 0.62511642456 -0.16958244324 -0.22516608429 -0.013055000305 0.11815184954 -0.22821723938 0.58736242294 0.1213847065 
-0.22539884567 0.10997783661 -0.29868740082 -0.22490556717 0.50424243927 0.16676286697 -0.22462188009 0.50581599173 0.050363908969 
-0.2223143959 0.52152581692 0.097866258621 -0.22158475876 0.10272865295 -0.07788069725 -0.21960748672 0.8028269577 -0.10568864822 
-0.21932220459 0.0019076538086 -0.20540184021 -0.21897582473 0.50528790952 -0.035447912572 -0.2184875679 0.050905036926 -0.27214603424 
-0.21569631577 0.85851547241 0.087625684738 -0.21227811813 0.59392930031 0.19380203247 -0.21221820831 0.46215561867 0.04316880703 
-0.21179443359 0.53465432167 -0.14420754433 -0.2086103261 0.49013958221 -0.090020752434 -0.20906934244 0.53097576047 -0.095931668903 
-0.20898435593 0.82408782959 0.14161272049 -0.20887456894 0.51100924969 0.21259374619 -0.20929675924 0.65427313702 0.19349010348 
-0.20797245026 0.41077175856 0.12362852097 -0.20607233047 0.59451914787 -0.16838148117 -0.20486646652 0.83039527893 -0.087762699127 
-0.20590221727 0.85877237406 -0.021597221683 -0.19916265488 -0.013055000305 -0.22839668274 -0.198099823 0.71337741852 -0.14937480927 
-0.19534506001 0.1755939375 -0.20316144743 -0.19654174805 0.79850032806 -0.1422966671 -0.19484615326 0.62880256653 0.23651548386 
-0.192532444 0.4020146513 0.18913486481 -0.19212192535 0.80118724823 0.22385438919 -0.19179388342 0.12058921848 -0.06016673696 
-0.18956897736 0.67201593399 -0.20312654495 -0.18963296784 0.048553902487 0.075481126005 -0.18927179337 0.45685769856 -0.010077869892 
-0.18802259445 0.48869340658 -0.11841647148 -0.18711175919 0.169686203 -0.14745089531 -0.18628217697 0.86866603851 -0.056103768349 
-0.18557336807 0.88835666656 0.036673314571 -0.18519929886 0.68392751694 0.23653284073 -0.18403006368 0.36346116854 0.13327258128 
-0.18478111267 0.44270431876 -0.027235229015 -0.18398387909 0.076232261658 -0.31260377884 -0.18261182785 0.39312526703 0.010919061899 
-0.18172111511 0.82488357544 0.20730262756 -0.18115166384 0.6865855953 -0.29157311998 -0.18127508163 0.14902873993 -0.061047148705 
-0.18096158981 0.89638816833 0.080605201721 -0.18010168076 0.29557515144 -0.031087002754 -0.17926858902 0.65405275345 -0.27519264221 
-0.17859035492 0.73439037323 0.24838891983 -0.17799356461 0.89830368042 0.0069110703468 -0.17708269119 0.0055129623413 0.13889346123 
-0.17679351807 0.3585180378 0.063370871544 -0.1730244641 0.22378632106 -0.065192839884 -0.17295972824 0.59604656219 -0.24965305328 
-0.17243255615 0.72220537186 -0.26347915649 -0.17108446121 0.20472640991 -0.0080603766441 -0.17041824341 0.71474796295 -0.20156866074 
-0.1702951622 0.48301212788 0.25187242508 -0.16941331863 0.33034276009 0.054925932884 -0.16726675034 0.33225309372 -0.072363357544 
-0.16678134918 0.0022667694092 -0.25774267197 -0.16637168884 0.52142673492 0.25608705521 -0.1649023819 0.58004733086 -0.1863712883 
-0.16482165279 0.38797169697 0.23500166577 -0.16450922012 0.078293762207 0.013885244131 -0.16408336639 0.6276307869 -0.23409639359 
-0.16289464951 0.19755506516 -0.12131619453 -0.16249149323 0.77969741821 -0.16797521591 -0.1597185421 0.40033065319 -0.086596908569 
-0.1592848587 0.6787861824 -0.25731122971 -0.15756032168 0.34774644168 0.20495518208 -0.1566631794 0.87239009857 -0.058557581902 
-0.15267285347 0.74152235031 -0.20931167603 -0.15446087507 0.10148925943 -0.31515016176 -0.15197499275 0.12615276337 0.0086217731237 
-0.15151363373 0.27767267227 0.065663948059 -0.14976681709 0.63949449539 0.27898101807 -0.14968020098 0.18724364038 0.038067421061 
-0.14854317665 0.57344899178 0.24342573166 -0.14718131065 0.88960033417 0.13993294716 -0.14698955536 0.31548618317 0.098192481995 
-0.14475662231 0.91339797974 0.05372733593 -0.1445471096 0.23859270096 -0.12837630272 -0.14414004326 0.58480666161 -0.29100910187 
-0.14332403183 -0.013055000305 -0.26141059875 -0.14368609104 0.84277035565 0.1799434329 -0.14187641144 0.20270090103 -0.21853393555 
-0.14153862953 0.6685134697 -0.30967767715 -0.14150481224 0.72989212036 -0.18373573303 -0.14093466759 0.53370537758 -0.20337022781 
-0.14013886452 0.68567457199 -0.34209182739 -0.13998055458 0.70353246689 0.27147083282 -0.13868063927 0.7749263382 -0.2731788826 
-0.13853071213 0.50272721291 -0.16465555191 -0.13768122454 0.51641312572 -0.22521864906 -0.13747308731 0.60506588936 0.25962114334 
-0.13691552162 0.22417926788 -0.16948171616 -0.1363963106 0.14729659771 -0.28641351143 -0.13721038757 0.45249490676 -0.11061014748 
-0.13372937202 0.73339929581 -0.31179864883 -0.13215977669 0.80854934692 0.2664317894 -0.12900613549 0.3972051122 0.26163549523 
-0.12810073853 0.76972137451 0.2792732048 -0.12491194607 0.45489781644 0.2708956036 -0.12750220299 0.053937454224 -0.31650144577 
-0.12587215424 0.88827388763 -0.084655637741 -0.12256739997 0.62568506238 -0.34251241286 -0.11902905464 0.47173730135 -0.19932844162 
-0.11769292977 0.31462553978 0.20855897927 -0.11763591766 0.90240383148 -0.0035055804253 -0.11751027107 0.80740131378 -0.17514633179 
-0.11741584778 -0.013055000305 0.149610672 -0.11696239471 0.76602058411 -0.17642284393 -0.11626912117 0.56874952316 -0.28585353851 
-0.11588058472 0.12822303772 0.055725049973 -0.11279132145 0.3287451681 -0.13572419347 -0.11333529472 0.0026148223877 0.15034903526 
-0.11191429138 0.56422386169 -0.30713741302 -0.11150139809 0.78020923615 -0.20719490051 -0.11107667923 0.85581417084 -0.13691925049 
-0.11001309395 0.2458285141 0.095291204453 -0.11004255073 0.7383690137 -0.3504000244 -0.10916448593 0.0024067306519 -0.26551897049 
-0.10966425494 0.035483734583 0.1077935024 -0.10887299538 0.33530842781 0.27021385193 -0.10679959297 0.87051189423 -0.10073505402 
-0.10362765418 0.21186012909 -0.23043222442 -0.10559883118 0.50626143456 -0.24816274643 -0.1032771492 0.92249500275 0.01569635272 
-0.10254101753 0.9089332962 -0.04601606369 -0.099197177887 -0.013055000305 -0.26178161621 -0.097371692657 0.51098345757 0.30517829895 
-0.096950893402 0.53426691055 0.27548158646 -0.096437778473 0.78408847809 -0.30095611572 -0.09547958374 0.58065844536 -0.33800701141 
-0.094152460098 0.8421005249 0.23006242752 -0.09405456543 0.060078353882 0.068674225807 -0.093078231812 0.29861690521 -0.15647420883 
-0.09233048439 0.19272686005 0.082018051147 -0.092132329941 0.45695707679 0.29111381531 -0.089216299057 0.37987693787 0.28635684967 
-0.087124795914 0.91030536652 0.096538906097 -0.08596039772 0.26324874878 -0.1851521492 -0.085960121155 0.90329833984 0.081272630692 
-0.085954170227 0.76815933228 -0.1959604454 -0.085541067123 0.2855386734 0.13039874077 -0.083192071915 0.79909183502 0.28591562271 
-0.082434577942 0.64404802322 0.30725364685 -0.082097492218 0.68307132721 -0.34664649963 -0.081901035309 0.74517713547 -0.33939758301 
-0.081166257858 0.5977874279 0.25146366119 -0.080859260559 0.88776344299 0.16724071503 -0.078128619194 0.41104044914 -0.14535470009 
-0.076395530701 0.73123533249 0.29156509399 -0.074490633011 0.3101485157 -0.20662372589 -0.07265083313 0.36077415466 -0.15523195267 
-0.070848250389 0.61874591827 -0.33587574005 -0.070621747971 0.32107795715 0.2612389183 -0.070305571556 0.38054944038 -0.19034900665 
[...]
CELL_DATA 8835
FIELD FieldData 1
color 1 8835 double
3.3697239409 3.7932491183 3.3090329843 3.2471325334 3.1463314997 3.0423652852 3.4768048913 3.6834793627 4.1327464785 
3.0748514445 3.2474484355 3.49961188 3.2590805044 4.1870533975 3.3885359003 3.5492765503 3.9826955756 3.5435151434 
3.350254405 4.5605521086 6.8389889104 5.9129560189 3.2226553219 3.2707730269 3.4841697268 3.2215127271 3.7599398259 
3.3457787851 3.2899489185 3.2442451966 3.4445867764 3.3218854916 3.2033800674 3.1514629868 4.1515069912 5.013753539 
3.4209793819 3.9987691271 4.3744427578 4.7002926106 3.6411750971 3.7872210722 3.5208661385 4.827152347 6.4047250536 
3.193786631 4.5557698312 5.1187727425 3.677290547 3.3813424024 4.953291351 3.1432066051 3.536880455 4.0907858898 
3.4681010447 4.494062531 3.9062174304 3.3414503132 4.4577306936 3.1764796978 3.0969853229 6.8875968512 4.0430162036 
5.2383073774 3.5228753869 3.7309138026 3.2726130924 3.1393981657 3.3318063036 3.4852187694 3.3073969807 3.4439090692 
3.3031900227 3.2069357445 3.1339308896 3.4423661973 3.3518283431 3.9319584766 5.0401561909 3.3760618082 3.3737095246 
3.1527898553 4.125871504 3.8586607876 4.3126446987 4.8732226973 4.73641524 6.5882083456 3.9783850511 3.5034417063 
4.8194864764 4.9313017384 3.2065415787 4.0852649723 3.1238572896 3.6532164852 3.1744388418 3.4327635694 3.378053941 
5.1606568877 3.2650079868 3.3077296724 3.497500856 3.3324678038 3.1967526159 3.3004772083 3.1786581472 3.4089399307 
3.3708527256 3.4385818162 3.5704191209 3.5490285459 3.5527010767 3.2231886082 3.6606975352 5.5128502776 3.4345245595 
3.3628914804 3.1728758719 3.3803503167 5.4517531164 3.3418516756 3.4551376096 3.412047213 3.4329001268 3.2538655556 
3.5225543237 3.4886298707 3.2892184255 3.1762265056 3.7402567781 3.2678529832 3.6943837052 3.9018635971 3.1928563843 
4.0982983014 3.4488156414 3.1829083924 3.1347430103 3.6353656826 3.1195196399 3.6915230012 3.4107094359 3.4705323633 
3.4472039992 3.3098523138 3.5457066608 3.4527539906 4.1719323732 3.9264543996 3.6459600688 4.6270852901 3.5095131244 
3.2436865608 3.4072272019 3.4555298763 3.663621337 3.1582646259 3.4471260861 3.438474081 3.6935341113 3.2647153716 
3.5668237303 3.6782010059 3.3653795259 3.7081705342 3.584060314 3.366757607 3.6274566414 3.3313567234 3.1721560742 
3.2555341842 3.2020233587 3.3930210979 3.6596715028 3.5296670978 3.4579945541 3.7617706054 3.5069972018 3.2972799524 
4.0450262013 3.5718937844 3.9923446308 3.4816257672 3.7372163466 3.7087867128 3.2925724547 3.2783591562 3.6642888771 
3.146577684 3.5705191984 3.276977194 4.3367794301 3.3024391732 3.1962774661 3.5480609635 3.3575879684 3.1832173079 
3.1484789891 4.3087988761 4.1068469318 4.2851860338 3.3695201059 3.7423376341 3.3177015513 4.0138390554 3.7608541089 
3.3422121807 3.5094172773 3.605407202 3.5532275634 3.5247703758 3.3837146091 3.3032784942 3.6896052471 3.1451106803 
4.2265941945 3.6384725405 3.9976787925 3.6434595901 3.2061577364 3.6880793543 3.7842398427 3.6580677422 3.1348399247 
3.8742540395 3.2540232065 3.5175249257 3.3333126612 3.93675749 3.1893607491 4.35151135 3.4820489846 3.618339414 
3.6427778107 3.5152991272 3.2990985061 3.3886164522 3.4007186901 3.9687491756 3.7448410519 4.1032068235 3.2001084507 
3.7504590526 3.539787911 3.7030978236 3.8324025258 3.2216204631 4.0211114139 3.8419114946 3.6270662189 3.7015925381 
3.5492722852 3.4398994578 3.2139600911 3.444321694 3.5819288767 4.1422958472 3.9331884096 3.3027935989 3.3965058475 
3.4270785089 3.2717502068 3.1943217993 3.5745938849 3.6351768623 3.1729318707 4.0962633422 3.8341834428 4.2639443761 
4.4586800215 3.8537896612 3.4978521995 3.4050156157 3.3768185892 3.2819127143 3.3778075419 3.3795179521 4.3588158442 
3.2197164511 3.9205158178 3.2272931045 3.4174790877 3.3041545642 5.1699041317 3.7299443749 3.5077314985 3.1286860486 
3.527742631 3.4841796059 3.4507615328 3.220036734 4.2494628698 3.3009027976 3.4046906242 3.3055035359 4.1402255665 
3.4129212094 3.139112359 3.1965460592 3.5182145993 3.1214654742 4.4642617028 3.3405755009 3.4377780178 3.4176669051 
3.4879500185 3.5080928522 3.0836471754 3.4388552425 3.410112575 3.3636507825 3.197476767 3.7590976506 3.2142938393 
3.6791583102 3.1737293259 3.739702355 3.4393678827 3.6886863579 3.2357680637 3.2884352569 3.6105738539 3.7910243168 
3.3046780707 3.1108130403 3.7806442634 3.5930506137 3.5721991976 3.5824501304 3.793021906 3.631536287 3.3591748265 
4.4102448205 3.6070160482 3.3294428145 3.1015029202 3.1279682164 3.3521267674 3.3521004449 4.6590908343 3.1696299907 
4.4718616548 3.3004301718 3.5256236786 3.6178628765 3.687220866 3.0375420659 4.0992026184 3.5120810959 3.2393904049 
3.3319455479 3.4044616884 3.7848883049 3.2609995109 3.2640096585 3.5042773903 3.3723441353 3.4258499453 3.5851828476 
3.5286758772 3.1641123128 3.29973776 4.2076299712 3.2466457416 3.4022997872 3.6788329672 3.6676370108 3.3705374237 
4.7881674756 4.8749249684 3.9309997237 4.26978318 3.128147151 3.1627014072 3.2876727498 3.3891554899 3.4038650956 
3.3145510281 3.3186037844 3.9455840039 3.3419668026 3.4209735766 3.1866817497 3.8386063523 3.4817427689 3.4951080298 
4.5919108287 3.8275611965 4.4283218435 4.6868002316 3.6308329414 3.1996717691 3.6891912769 3.8272493334 3.4179808933 
4.3021599714 3.7293325804 4.0437050255 3.5105705773 3.7628442612 3.4200301698 3.2944453085 3.8652243286 3.5063660785 
4.547670214 3.3331806514 3.3791268122 4.168600302 3.3770164799 3.7175690513 3.6242555197 3.6126157122 3.5192089214 
3.8251084934 3.736259373 3.3023046845 4.1444996721 4.0002464419 3.3137479064 3.1108126345 3.7563839328 3.5442015924 
3.2823199402 3.4938752879 4.9653855414 3.9106516677 3.7586588609 3.6375331019 3.4969482935 3.6693094398 3.9134510143 
3.4452453405 3.1795658102 3.3388734128 3.3292760697 3.0374315908 3.5136925024 3.1313750346 3.2361782899 3.2554822072 
4.601381774 3.4084036379 3.7267073599 3.0609053274 3.3930418424 3.7165460047 3.777945009 3.3782795479 3.5544190081 
3.3801023194 3.5708950535 3.3014337201 4.3458599967 5.3581428636 3.197997484 3.2133917922 3.3575010578 3.3348003265 
3.4354299267 3.5480436569 3.7495694411 3.3281962269 3.297807105 3.2788765462 3.5386518862 3.4821976638 4.0930204781 
4.0611730272 3.3589346686 3.4023096442 3.7482290629 3.5480593761 3.7190535631 3.6012663345 3.0606621457 3.7696017319 
3.8370882951 3.3147546416 3.4418982767 3.0825755626 3.3052018803 3.6277916754 3.2013703156 3.3023924809 4.0442524135 
3.1229168008 3.2355757681 3.4275755852 3.985076076 3.4967790917 3.182895839 5.109977554 3.6811268968 3.8775803809 
3.9365639421 3.3180632617 3.1851886979 3.5727304434 3.3714862379 3.8903221102 3.5287461598 3.7666999334 3.2031697068 
3.3812265907 3.2564262019 3.3059594386 3.2900861668 3.2689939129 3.1315628655 3.3341956332 3.2634277882 3.1696110642 
3.863197112 3.3983148365 3.4370023558 3.2432835873 3.4405080338 4.0953114775 3.5954374065 4.0165000264 3.4370997581 
3.5448340748 3.6894065857 3.3304408825 3.4403965102 3.4928032839 3.6517157896 3.7933305256 4.0880426686 3.9295766002 
4.1329419947 3.4084332489 3.607606328 3.5256944682 3.5103033943 3.1820089287 3.3985068184 3.4294076522 3.3316287987 
3.05461236 3.2961111655 3.2672870964 3.3702428512 4.5535090256 3.5376598871 3.2683364428 3.2237405143 4.555028189 
3.820767486 3.3031484048 4.4900157626 3.2449377989 3.1715469137 3.2056266917 3.7024380968 3.2810677692 3.3036110329 
3.3074266038 3.1517304456 3.3385948991 3.4436628226 3.0719631023 3.8745168674 3.5113238043 3.4775979923 3.1212909881 
3.4196505314 3.0763651914 3.5096314191 3.3829191445 3.4395440445 3.6662830258 4.3175914563 3.6099001015 3.9938086019 
4.0643680589 3.6139875123 3.6888416501 3.1680882016 5.4017613087 3.7715572535 3.1811034218 3.3957447807 3.441147315 
3.2759706809 3.195805263 3.4829515367 3.7351328634 3.8113120471 4.5413195036 4.0315620987 3.391791613 3.6394633592 
4.211357229 3.1526904136 3.4433332825 3.1025504617 3.6631476686 3.5125687298 3.8492407594 3.6161035377 3.3742206579 
3.4324119736 3.2159804432 3.4879279611 3.4041690515 4.4667669418 5.3343263921 3.8689098044 3.6884860427 3.1997964365 
3.3401450093 4.2065289224 4.1163463015 4.7096277505 3.6778821203 3.4794748356 4.1196157102 3.2450129116 3.3556285158 
3.1939415003 3.412234548 3.2761796215 3.4651544862 3.1721276091 3.3205684878 3.9549853876 3.365854865 3.580129722 
3.3646101364 3.5082118385 3.8460207445 3.3234988738 3.0751797199 3.5006540075 3.355063763 4.7731928307 3.9432665156 
3.9361112089 4.1692442528 3.0791512528 3.7308479755 3.73021755 3.6034538991 3.6011860514 3.6057007755 3.1765137086 
3.3717035655 3.494373912 3.3624680775 4.1876810822 3.2446822596 3.2398426309 3.4969771682 3.2396187603 3.8418249815 
4.3886838576 3.4467161913 4.2102772163 3.5441871569 4.2093721077 3.4480155667 3.5692902996 3.6789046472 3.5258928267 
3.0808791037 3.2370256043 3.848908927 3.4499600036 3.7474025331 3.9650180605 3.4175082893 3.2032410609 4.8904750218 
3.2418137042 3.3251094793 4.0821747484 4.9968935342 4.7584981516 3.6587936404 3.4986064364 3.2344475167 3.2423639657 
3.567767535 3.4400063515 3.2354741346 3.04317117 3.3578576354 3.5363225907 3.1749839924 3.2520940908 3.3908005648 
3.4553474868 3.2263704126 3.8303142489 4.2236249084 3.6774763581 3.4167322291 3.4077805274 3.2735573713 3.3955726701 
3.7340308821 4.1955760398 3.338939046 3.4840055741 3.5233837648 3.8896365217 3.1451484814 3.6170553898 3.2613958099 
3.8788682255 3.7251972222 3.1719097981 3.1699006627 3.6413559257 3.3663655711 3.1646286592 3.2336409601 4.6625322723 
3.3466533165 3.2978258347 4.940598068 3.8023510734 3.8126938989 3.2683327198 3.243270206 3.3045689118 3.377149159 
3.4114389269 3.1170686221 3.4886826961 3.7915558029 4.0468591325 4.5806993526 4.9253614174 3.6077293945 3.9042303798 
3.511705753 3.2928304461 3.2022618827 3.3887543017 3.1877970494 3.4145956944 3.4695548733 3.515926115 3.1012601855 
3.3187058683 3.3260491819 3.4850190384 3.1918141291 3.7419732579 3.8132456754 3.1893504832 3.8350309413 3.1520434779 
3.1721090668 3.3622143335 3.1117794878 3.3687650877 3.4883293292 3.2981010362 3.4494824605 3.2662063734 3.7232941803 
3.8511469519 3.8129562015 5.0526489371 3.4396559135 3.2654032343 3.4968852379 3.2662231322 3.4750311547 4.161799728 
3.797072277 3.6759227693 3.2395100773 3.3255132365 3.1884135174 3.2440839876 3.2743405908 3.3066532234 3.4377089655 
3.3464288857 3.6538018391 3.6334951357 4.2215653303 3.2690457621 3.7529697916 3.4288238892 3.8215130176 3.4334868751 
3.4390553955 3.4550613192 3.2381701933 3.374589455 3.8018951014 3.0946882864 3.3768526787 3.5498904022 3.2521784997 
4.228425233 3.8627947919 3.315651729 3.2773214463 3.6341168821 3.0363092002 3.4946821669 3.5003431729 3.2405561504 
3.3938962656 3.510390048 3.1965343946 3.1878433047 3.3449302804 3.484699419 4.1972412449 3.2419765348 3.4315358968 
3.6959969703 3.9684347667 3.4264039631 3.3640487744 3.214323665 3.2083612386 3.2855014039 3.17280247 3.2054300899 
3.1808030485 3.5076382542 3.1173211251 3.3646998203 3.7549871882 3.520535794 3.2003009405 3.4310797164 3.3289217485 
3.6627428321 3.2909619482 3.6859005386 3.3354003364 3.5671068655 3.7542061589 3.2741243597 3.5861797617 3.4955996102 
3.4812288608 3.6723423819 3.9889101976 4.0515231467 4.9180643185 3.4639593593 3.1976118709 3.1510985293 3.5942711143 
3.6181978667 4.0761794155 3.5603055581 3.326930015 3.4729497349 3.2636865615 3.876965462 4.1907729371 3.3211951797 
3.2457196864 3.3196515255 3.0701837534 3.3355449219 3.8812778316 3.6516116839 3.4985257272 4.6261257134 3.3440754582 
3.7610002915 3.2149782273 3.3249871103 3.2022158115 3.0965209385 4.3136176209 4.0053854162 3.5514412071 3.2686920368 
3.8096149006 3.4297167561 4.0086164482 4.616798587 3.7260604351 3.2990390072 3.2162112697 3.990015833 5.2484840119 
3.3180435647 3.3616826091 3.9422649272 3.622770707 3.632074772 3.3806811972 3.1603435757 4.4110956153 4.3537492622 
3.723545328 4.198741488 3.9894155187 3.9329808479 3.3505934014 3.2792317473 4.3272792239 3.7349228516 4.3359821471 
3.7104321354 3.1800446071 3.1881970466 3.1922914817 3.2688676003 3.0872697457 4.1179167546 3.3060548471 3.7230787184 
3.3819828064 3.818891945 3.7188631565 3.468819165 3.3866067072 3.132882522 5.6145666235 3.4936237515 3.5979962591 
3.2703357116 3.2860227588 3.8551534774 3.4543471345 3.0725497872 3.2036894724 3.9605357228 3.4942082684 6.1585011552 
3.4075373343 3.2378336895 3.2607017256 4.3557772399 3.0923482337 4.0831170135 3.3870419389 3.3600869267 3.2432742381 
3.6648154734 3.3501708756 3.1601176128 3.8793095305 3.5392577578 3.4653292029 3.9115186162 3.6685359959 3.244243921 
3.8074563609 3.2154166003 3.1922055347 3.3022977028 4.3662101901 3.3860779859 4.1149905235 4.1299593309 3.2472829356 
4.7493403329 3.4397238811 3.2559302944 3.303973184 3.0901843731 3.3799080073 5.7283797231 4.2727128001 3.5511391311 
3.7602457408 4.5841626651 3.4660948163 4.1715203078 3.2398337763 3.3408748291 3.1292559675 3.5573090333 3.4715444911 
3.5633816953 3.3875223403 3.3713491767 3.4038793822 3.1309856097 3.45554094 3.3388263356 3.2890188168 3.4879108323 
3.5102721765 3.4920559928 3.4093997265 3.1437847333 3.1784238077 3.5641518534 3.0504539765 3.1661462514 3.2395640184 
3.1591963009 3.2599635666 3.5460707021 3.8066031235 3.2495145846 3.3131795227 3.2204027978 3.0847557896 3.546731066 
3.4322439916 3.0466612637 3.4673142694 5.3230288955 3.9076139986 4.1514565132 3.158337054 3.5000278616 3.6878248675 
3.0743303412 3.4129343815 3.3858391757 3.0329696264 3.5181221461 3.3794411215 3.4546441687 3.4669351816 3.4658344248 
3.262991785 3.6402333839 3.5995970682 3.0448020297 3.2199922599 3.6067793199 3.3094012496 3.2535538533 3.4313556267 
3.3818338897 3.4930551206 3.6155918675 3.249145447 3.1465792187 3.419325876 3.702774574 3.5919171594 3.2298207939 
3.2783801351 3.2108506237 3.2099962387 3.4453790949 3.2991346387 5.6308155897 3.3651320269 3.4274030583 3.8289874086 
3.540330263 3.2021692786 3.5753278958 3.9217505923 3.4652781893 3.8925356516 3.2369804696 3.164988925 3.6387540904 
3.4902349794 4.088425356 3.240597951 3.3031979913 3.3194094726 3.7306036873 3.3907693407 3.4726766426 5.290672128 
3.1580875325 3.7166330392 3.5989172982 3.4991857368 3.4372056074 4.4985311528 3.7751505207 3.3924580098 3.2609198526 
3.4658225423 3.9450960332 3.836759797 3.8281974274 3.8922194288 3.753711418 3.8654643738 3.3256830647 3.4761541331 
4.5430492631 3.5441448694 3.7848486704 4.3225799542 3.183563476 5.0369030745 3.1159868162 4.2036877676 4.8694374417 
3.9753547056 3.5561066145 4.7539985147 3.3487372819 3.2429540217 3.3394368839 4.1754443853 3.1189575634 4.0422030244 
3.3578685828 3.3241837448 3.4447572422 3.2520307517 3.6682740144 3.4944884583 3.2991514347 3.487808191 3.3394690639 
3.9575391154 3.3071858515 3.8847202377 3.1305922853 3.6346700748 3.4554606757 3.5019090761 3.5233226326 3.5870799262 
3.7980785215 3.5141805007 3.3340109174 3.5107729123 3.1982587868 3.159185569 3.5125227501 3.1720509749 3.0513990931 
3.1798750572 3.2236250252 3.26669787 3.4493149381 3.4447115698 3.5152453875 3.4480519607 3.98727478 3.2760164079 
3.1605203637 3.284174136 3.6148975557 3.3545389285 3.6019374866 3.3181199424 4.7391997468 3.6728247074 3.3801129279 
3.4853596119 3.2540166535 3.492847938 3.2046930474 3.1078486563 3.3926480561 3.4947491763 3.3205032825 3.509532916 
3.3424298376 3.1653879666 3.3638407084 3.481890685 3.3990613026 3.5038143299 4.2147692449 4.4140530167 3.239976184 
5.6114359721 3.2965729635 3.2761839291 3.7126691778 3.4027415801 4.4872879867 3.7026804596 5.4659151792 4.1166155495 
3.664033007 3.3824254752 3.0868269032 3.1613618727 3.1509270105 3.5822589275 3.4093721997 3.4436067578 4.301048776 
3.399065485 3.1607450485 3.4373613852 3.5861324625 3.1667682254 3.5953702733 3.1392096623 4.2293721816 5.1132824572 
3.5102003938 3.377026707 3.4855960522 3.1038448782 3.6615893323 4.765373954 3.4653154978 3.2402702007 3.367762699 
3.4624329424 3.2616098618 3.3747822245 3.3257476467 3.2151718148 3.104449866 3.3275234254 3.2027204217 3.3621473984 
3.8014383241 3.2405051335 3.6370556115 3.843760294 3.6888584751 4.0509490276 3.9534950819 3.5453707894 3.338561438 
3.4213655895 3.4419384 3.6281346384 3.6741295562 3.3631206819 3.5216318871 3.3655956732 3.324706103 3.7138197654 
3.0774288918 5.9993839042 3.67204068 3.327919171 3.3982104123 3.7676079605 3.1762983754 3.0477714841 3.8589552407 
3.7254953552 3.1537825313 3.3986128842 3.3473180375 3.9285374715 3.7548537384 5.6258764577 3.3620996886 3.5082127246 
3.7886565308 4.3205967421 3.8958522884 3.6856530541 3.5974499984 4.3866414328 3.5367294802 3.3794709785 3.7178162991 
3.8237545737 3.4916494968 3.7793620597 3.6361244739 3.4464846183 3.3297048241 3.8236445567 5.0383090632 3.8252764618 
3.2431616429 3.3092667525 3.2830778574 3.2925131955 3.7210445283 3.5775726215 3.5870104344 3.3448395122 3.7655742905 
3.5347243463 5.2313526562 3.1166589757 3.109821659 3.2117233306 3.5015406481 5.7457725397 4.0572580782 3.3704048827 
3.4412363229 3.8741806524 3.5486395582 3.3966279986 3.6936405768 3.4450279538 3.9275584596 3.2001384404 3.3849060186 
3.2611409522 3.9080913012 3.9152796848 3.6328464673 3.3144660112 3.7217708478 3.4356004464 4.0078180121 3.3366814005 
3.487969962 3.3671045383 3.4794262175 3.3706742278 3.9008841273 3.6170871774 3.2736370356 3.6123695879 3.2647341877 
3.0435875191 4.740244882 4.0001760523 3.6986675942 3.6605441906 3.2385203124 3.1512736799 3.2776882871 3.4203956134 
3.1904742783 3.5668401299 3.3750333428 3.8971243447 3.4193115508 3.0131156994 3.1109757799 3.6317390559 5.2112221757 
3.8188435119 3.1661421753 3.1489397078 3.3051416711 3.8755564305 3.6241103882 3.325269024 3.3964341604 3.1958466968 
3.2308796573 3.4229769915 3.5397818713 3.1930608061 3.4122763144 3.7157819545 3.0846603987 3.2767181608 3.7826564536 
3.8464183133 3.4501530416 3.5081920812 3.4802480976 4.9488817625 3.7662268159 4.1891638494 3.3263158767 3.2614366466 
4.923517585 3.6262845918 3.33575118 3.4746726228 3.7308494069 3.6950807803 3.3308146491 3.4159112477 3.4007020096 
3.1941337028 3.4920311758 3.3184546519 3.5461288729 3.466343367 3.547666789 4.0104355246 3.3920653406 3.1354998259 
3.1718114791 3.92257355 5.6739360896 4.1869587493 3.4128188104 3.2667908427 3.540868391 3.3584828341 3.29999005 
3.5009950463 3.3064638164 3.32149251 3.413458833 3.4775990618 3.5300232896 3.6231027425 3.2958392204 3.5681546403 
3.1177015078 3.7582618732 3.9450649388 3.5706697169 3.339053153 3.2443656711 3.2701098453 3.3871013975 3.0942220146 
4.1153439817 3.0450075002 3.1550677596 3.2991377582 4.0341575984 3.5722384325 3.7145393579 4.1331937832 3.6793729752 
4.1327912499 4.0907550969 3.7603960354 3.7748319928 3.3920360139 3.4382162455 3.186483496 3.3611213116 3.5101192733 
3.1839378827 3.2160266627 3.4745924609 3.1092340833 3.0856822699 3.3806887949 3.682731985 4.1019068287 3.0568358412 
3.3159576696 3.3710867197 3.338332993 3.5676790897 5.4466537402 3.9405046174 3.506260147 3.225740094 3.5184109566 
5.0595506352 4.3053581642 3.9844835908 3.1387535206 3.3854971025 3.2067136986 3.4389604689 4.3209756826 3.3623761162 
3.1948473779 3.4399909692 3.4610214488 3.3195422328 3.4254684039 3.6707280035 3.7060877245 3.8838331671 3.8436034439 
3.2213680434 3.140874254 3.3669331012 3.4737420492 3.2010595422 3.4653097916 3.5332204726 3.3412791413 3.4835786543 
3.4230814577 3.2378195326 3.6466432697 3.4370934221 3.1574856502 3.1481221963 3.0751199653 3.8192506907 4.1449866932 
3.431415985 3.2807539103 4.3913601487 3.6007840957 4.1741839964 4.1022925822 3.865100608 3.1524670272 3.4061346402 
3.4643831012 3.4503063884 3.9926270635 3.5628703563 3.7949743778 3.5469547442 4.1649854597 3.3362094079 3.6906355498 
3.5564083446 3.7571313848 3.4777948563 3.7820524934 3.4173851387 3.6838622701 3.9678534921 3.515884916 3.2175681955 
3.6096110658 4.6616025837 3.2598798157 5.1740295518 4.1314943037 3.6169857519 3.9779921229 3.2635366901 3.8294597883 
3.3116516786 3.2863931917 3.2136668063 3.1746043509 3.3528267102 3.4226612898 3.2203955859 3.1217749859 3.5782007888 
3.7230754773 3.9181308936 3.6768434381 3.2957596981 3.0908982293 3.1241661072 3.3332476704 3.6771510544 3.6850065048 