# vtk DataFile Version 5.1
vtk output
ASCII

DATASET UNSTRUCTURED_GRID
POINTS 7842 float
-0.0793226 0.592975 -0.0578242
0.0176515 0.588377 0.0990377
0.0828205 0.628193 -0.0775323
-0.0372614 0.602572 -0.000586118
-0.00498051 0.601077 0.0517121
-0.0230711 0.606357 -0.062743
0.0542657 0.619474 0.037528
0.0309635 0.618108 -0.0693299
0.0760335 0.632755 -0.0213241
0.0204225 0.618508 -0.0101389
0.0741351 0.545225 -0.0547282
0.0838308 0.577901 -0.0665296
0.0889913 0.605343 -0.0737238
-0.436313 0.595928 0.0884592
-0.485772 0.608691 0.108373
-0.461004 0.647265 0.185361
-0.494093 0.710906 0.0718821
-0.460091 0.598789 0.0979516
-0.474141 0.603608 0.104524
-0.442397 0.621653 0.118677
-0.477796 0.62196 0.135104
-0.451027 0.635196 0.157683
-0.469529 0.634777 0.160789
-0.452676 0.636468 0.0756609
-0.474885 0.638542 0.0907792
-0.468442 0.666318 0.147054
-0.469015 0.67832 0.0726638
-0.477659 0.672627 0.0787212
-0.479448 0.687538 0.109278
-0.461597 0.619217 0.130455
-0.466351 0.637663 0.0854468
-0.454519 0.657428 0.105393
-0.471804 0.652656 0.119435
-0.434747 0.681331 0.0535577
-0.445835 0.658508 0.154945
-0.438209 0.670216 0.104114
-0.434697 0.646351 0.0607644
-0.433426 0.619206 0.0726812
-0.437227 0.64509 0.112882
-0.454913 0.694908 0.0629272
-0.471725 0.706236 0.0697328
-0.454157 0.661353 0.0674504
-0.458408 0.679568 0.110619
-0.523087 0.691159 -0.329021
-0.554663 0.69537 -0.341145
-0.429763 0.768688 -0.233587
-0.54786 0.663867 -0.422134
-0.53352 0.693166 -0.331365
-0.545192 0.692632 -0.336928
-0.493147 0.714332 -0.29735
-0.51842 0.72385 -0.309995
-0.464216 0.738938 -0.264647
-0.476321 0.748243 -0.274176
-0.533492 0.686084 -0.359738
-0.554578 0.68582 -0.373999
-0.467089 0.734097 -0.295902
-0.543355 0.673684 -0.39407
-0.552378 0.675395 -0.401064
-0.506843 0.69966 -0.359045
-0.506082 0.719167 -0.303421
-0.545204 0.68569 -0.368562
-0.503753 0.707774 -0.330059
-0.513703 0.712027 -0.337416
-0.416073 0.730114 -0.211897
-0.532558 0.658451 -0.394851
-0.418219 0.748843 -0.215172
-0.425954 0.756864 -0.225484
-0.441956 0.718938 -0.259829
-0.459951 0.726345 -0.286015
-0.493557 0.686405 -0.337094
-0.495996 0.692917 -0.342878
-0.443321 0.722475 -0.242811
-0.530991 0.670352 -0.374585
-0.486938 0.704208 -0.293097
-0.524576 0.682997 -0.349636
-0.455968 0.720698 -0.281256
-0.458968 0.729974 -0.258738
-0.486659 0.699112 -0.31013
-0.493682 0.704156 -0.320432
-0.537327 0.660782 -0.405877
-0.543071 0.661659 -0.41446
-0.53602 0.672982 -0.383892
-0.501577 0.696558 -0.350544
-0.296826 0.746937 -0.362757
-0.261435 0.767975 -0.363892
-0.27845 0.755488 -0.392927
-0.284511 0.759063 -0.372301
-0.272866 0.765935 -0.372542
-0.291412 0.75256 -0.377265
-0.268209 0.764824 -0.372631
-0.285203 0.755459 -0.387261
-0.273869 0.760645 -0.382391
-0.279519 0.761159 -0.379591
-0.269938 0.750956 -0.336262
-0.267714 0.756704 -0.343065
-0.265395 0.76146 -0.355198
-0.272979 0.753415 -0.357294
-0.277173 0.7554 -0.379543
-0.271567 0.758419 -0.367674
-0.280205 0.750128 -0.378661
-0.280256 0.752374 -0.382496
-0.280092 0.753854 -0.388916
-0.277091 0.749902 -0.368745
-0.273405 0.749718 -0.351248
-0.276717 0.752919 -0.371782
-0.370289 0.747587 -0.114199
-0.385824 0.779754 -0.116428
-0.358626 0.752474 -0.17925
-0.377214 0.759283 -0.113501
-0.383413 0.769203 -0.117589
-0.366348 0.754324 -0.135341
-0.376534 0.771427 -0.138649
-0.366568 0.755565 -0.162475
-0.367573 0.763279 -0.159744
-0.386062 0.759714 -0.151202
-0.398659 0.779551 -0.157391
-0.381091 0.759582 -0.200865
-0.409426 0.76477 -0.197093
-0.412947 0.776733 -0.197128
-0.404907 0.765003 -0.218979
-0.371637 0.76389 -0.138741
-0.393001 0.768701 -0.154498
-0.387025 0.761877 -0.178377
-0.389705 0.770937 -0.180784
-0.372577 0.73879 -0.173991
-0.368256 0.743069 -0.176773
-0.364777 0.747123 -0.179725
-0.387948 0.738984 -0.1873
-0.380367 0.753193 -0.1924
-0.402141 0.734533 -0.201959
-0.397864 0.747935 -0.203934
-0.371093 0.743051 -0.153379
-0.396161 0.750204 -0.183084
-0.368709 0.744779 -0.131523
-0.378801 0.753516 -0.145275
-0.386182 0.746308 -0.19271
-0.368296 0.750212 -0.155283
-0.383335 0.747621 -0.167358
-0.380741 0.754504 -0.171564
-0.399815 0.758713 -0.183567
-0.401599 0.756909 -0.211216
0.226251 0.602882 0.0228188
0.105366 0.612556 0.0791681
0.174901 0.617403 0.0537595
0.19053 0.623642 -0.00708716
0.142732 0.632073 -0.040548
0.13152 0.631246 0.0179894
0.183033 0.581284 0.00587886
0.131277 0.55579 -0.0164835
0.142255 0.598877 -0.0295358
-0.382812 0.72926 -0.00904127
-0.433369 0.771874 0.0168096
-0.426958 0.739193 -0.0930243
-0.401234 0.748018 -0.00118997
-0.416259 0.761102 0.00666857
-0.389635 0.750447 -0.0535994
-0.411981 0.770541 -0.0238588
-0.38805 0.766418 -0.09179
-0.395142 0.77368 -0.0675184
-0.411334 0.735924 -0.0374658
-0.435274 0.764969 -0.0208373
-0.402831 0.773885 -0.108537
-0.42057 0.742296 -0.0683679
-0.432959 0.754442 -0.057735
-0.416846 0.760563 -0.100365
-0.399735 0.762374 -0.041676
-0.423205 0.749963 -0.0296844
-0.405132 0.754497 -0.0742913
-0.415668 0.76826 -0.0623347
-0.388043 0.718476 -0.0903491
-0.3739 0.738386 -0.102549
-0.392428 0.762523 -0.109319
-0.378101 0.728784 -0.0946964
-0.388989 0.742337 -0.096811
-0.369372 0.746072 -0.0851395
-0.387236 0.720941 -0.0676436
-0.374987 0.739811 -0.0469162
-0.388604 0.720885 -0.0385376
-0.383665 0.750948 -0.104098
-0.380262 0.756214 -0.0836934
-0.377153 0.734131 -0.0739224
-0.388297 0.746664 -0.0800374
-0.404832 0.725046 -0.0893521
-0.416264 0.733926 -0.0925969
-0.407202 0.732538 -0.0617908
-0.404039 0.751667 -0.0974012
-0.107999 0.0711011 0.161685
-0.120138 0.0554507 0.196317
-0.0419389 0.0805979 0.238129
-0.0794574 0.135305 0.122383
-0.111667 0.0641243 0.17322
-0.113976 0.0571429 0.184623
-0.0870859 0.0747936 0.189306
-0.0959796 0.0618724 0.218112
-0.0630781 0.0727131 0.221358
-0.0699235 0.0702716 0.232042
-0.102797 0.0904487 0.151868
-0.108694 0.0843772 0.179983
-0.056783 0.0980374 0.210864
-0.0905673 0.112657 0.135325
-0.0949994 0.110889 0.155394
-0.0692079 0.116186 0.17228
-0.0908821 0.0669273 0.204507
-0.106115 0.0868998 0.167122
-0.0785697 0.0958923 0.180388
-0.0836948 0.0901932 0.199351
-0.0407535 0.0728177 0.208905
-0.0638459 0.119216 0.0904328
-0.0424263 0.0743109 0.218418
-0.0427224 0.0744228 0.228189
-0.0479042 0.0819136 0.184379
-0.0507472 0.0888839 0.206531
-0.0577855 0.0962566 0.138748
-0.0601907 0.102419 0.151884
-0.0642194 0.07574 0.192748
-0.0865713 0.096909 0.129495
-0.0889447 0.0748161 0.172515
-0.0992909 0.080687 0.151363
-0.0503127 0.0870412 0.192381
-0.0657702 0.073945 0.204779
-0.0740621 0.0843499 0.166757
-0.072954 0.0878911 0.179571
-0.0705671 0.126693 0.105627
-0.0746136 0.13001 0.113618
-0.0898843 0.103944 0.13369
-0.0637763 0.108783 0.163189
-0.249377 0.730324 -0.165763
-0.286125 0.720986 -0.186901
-0.315125 0.658221 -0.39472
-0.239108 0.661257 -0.289726
-0.262333 0.724528 -0.172029
-0.272485 0.723045 -0.180455
-0.268628 0.716632 -0.23694
-0.288589 0.708297 -0.252765
-0.292567 0.688002 -0.325379
-0.298156 0.688128 -0.321712
-0.247625 0.708178 -0.201884
-0.269315 0.697148 -0.22453
-0.294338 0.658914 -0.362477
-0.244364 0.68367 -0.24991
-0.253658 0.677112 -0.258431
-0.269289 0.659505 -0.327456
-0.278926 0.711093 -0.247174
-0.259031 0.701365 -0.215044
-0.267435 0.68603 -0.283628
-0.277982 0.68223 -0.292016
-0.290855 0.672509 -0.373229
-0.233191 0.695092 -0.258628
-0.299138 0.668713 -0.378041
-0.3085 0.661765 -0.390909
-0.275107 0.680928 -0.333486
-0.289261 0.665695 -0.355897
-0.254158 0.689515 -0.293003
-0.259262 0.678849 -0.303493
-0.275724 0.699776 -0.3048
-0.239497 0.709037 -0.225406
-0.256962 0.722512 -0.227414
-0.240928 0.722437 -0.191966
-0.281196 0.673663 -0.342807
-0.282306 0.695775 -0.307424
-0.256471 0.705987 -0.26185
-0.266128 0.695207 -0.278782
-0.2363 0.68352 -0.264462
-0.239123 0.670447 -0.281297
-0.243112 0.696933 -0.235074
-0.266317 0.667642 -0.318182
-0.584971 0.6479 -0.457283
-0.548764 0.678435 -0.373287
-0.577201 0.679839 -0.389547
-0.568092 0.658991 -0.443479
-0.572259 0.661812 -0.421261
-0.587152 0.664159 -0.428424
-0.580426 0.653689 -0.455209
-0.561554 0.677399 -0.381921
-0.560682 0.66872 -0.407866
-0.573724 0.669939 -0.419592
-0.552521 0.656454 -0.420016
-0.571893 0.652399 -0.444374
-0.560008 0.657649 -0.431725
-0.552004 0.666671 -0.400936
-0.562595 0.646435 -0.434826
-0.570077 0.648044 -0.441801
-0.577119 0.647383 -0.451387
-0.55541 0.663022 -0.400922
-0.539607 0.679061 -0.362132
-0.55504 0.6511 -0.423473
-0.545007 0.654936 -0.408425
-0.561255 0.663884 -0.40776
-0.56224 0.652647 -0.432234
-0.544117 0.666835 -0.387511
-0.382104 0.671694 0.136015
-0.392006 0.701488 0.199407
-0.370043 0.560414 0.251751
-0.311314 0.657983 0.162913
-0.386177 0.680314 0.172399
-0.388015 0.688816 0.191455
-0.384933 0.629997 0.194455
-0.387202 0.657004 0.236217
-0.383368 0.592252 0.233334
-0.379926 0.60997 0.253654
-0.353574 0.66532 0.156262
-0.35866 0.699996 0.205637
-0.344314 0.603095 0.239613
-0.332656 0.665806 0.163275
-0.331774 0.685444 0.19346
-0.324667 0.635523 0.210072
-0.383888 0.642813 0.219311
-0.355574 0.682402 0.187316
-0.35415 0.631589 0.197714
-0.352751 0.652755 0.23239
-0.320762 0.620813 0.113322
-0.31373 0.638424 0.131084
-0.313858 0.650212 0.148785
-0.349631 0.63051 0.120373
-0.369124 0.643401 0.131115
-0.338395 0.649087 0.144111
-0.465188 0.659514 -0.320458
-0.452661 0.648876 -0.354409
-0.502767 0.579973 -0.439566
-0.527918 0.628607 -0.459245
-0.458301 0.658442 -0.331336
-0.457244 0.651995 -0.345338
-0.473886 0.637577 -0.35527
-0.46907 0.628488 -0.380376
-0.490301 0.607961 -0.402676
-0.485766 0.605551 -0.40884
-0.483448 0.644628 -0.366898
-0.477339 0.643806 -0.385224
-0.512555 0.590216 -0.456577
-0.508911 0.631821 -0.422461
-0.502396 0.63719 -0.42025
-0.520891 0.606437 -0.463095
-0.4721 0.631355 -0.370789
-0.481082 0.643178 -0.378511
-0.497163 0.620055 -0.41008
-0.494793 0.618335 -0.419797
-0.500664 0.611085 -0.4027
-0.501569 0.600314 -0.414723
-0.503052 0.590943 -0.427322
-0.511025 0.613301 -0.430631
-0.521328 0.618098 -0.449772
-0.492897 0.624947 -0.38074
-0.480587 0.643803 -0.342887
-0.511613 0.603483 -0.442126
[...]
POINT_DATA 7842
SCALARS Norm_u float 1
LOOKUP_TABLE default
0.0100637 0.00532655 0.0083165 0.0080143 0.00647645 0.00905247 0.00649939 0.00846762 0.00747945 0.00757479 0.00717482 0.00767501 0.00803052 0.0233989 0.0270593 0.0234917 0.0295728 0.0252029 0.0262123 0.0230171 0.0256839 0.0229579 0.0245305 0.0253387 0.0267492 0.0245458 0.0271036 0.0277081 0.0266177 0.0244446 0.0262061 0.0243677 0.0255165 0.0248122 0.0223171 0.0228343 0.0244151 0.0237264 0.0226032 0.0261569 0.0274353 0.025892 0.0244952 0.253032 0.28082 0.127303 0.343966 0.260854 0.272257 0.208297 0.230463 0.166117 0.178728 0.283449 0.307567 0.193259 0.317814 0.328647 0.265839 0.219335 0.297571 0.240384 0.251242 0.103728 0.314096 0.108243 0.119369 0.154042 0.182569 0.24363 0.247677 0.140519 0.295597 0.203812 0.27075 0.177567 0.159979 0.217478 0.228035 0.325214 0.335277 0.305472 0.256533 0.352075 0.345174 0.387769 0.358871 0.357042 0.368724 0.357556 0.380618 0.37182 0.367968 0.313481 0.320619 0.335198 0.340436 0.369751 0.352713 0.370458 0.374931 0.383108 0.357019 0.333595 0.36011 0.0394817 0.042804 0.0678934 0.0410399 0.0435447 0.0483914 0.0539449 0.0612297 0.0620975 0.0587354 0.0676667 0.0887584 0.0937479 0.0952956 0.108692 0.0522433 0.0633122 0.0754998 0.0794394 0.0639217 0.0659458 0.0681008 0.076755 0.081112 0.0918375 0.0933138 0.0543009 0.0786076 0.0451747 0.0532265 0.0813633 0.0565809 0.0652753 0.0687252 0.0812495 0.100942 0.00633659 0.00554284 0.00595212 0.00693598 0.00756371 0.00666059 0.0062806 0.00637991 0.00704644 0.0246405 0.0271209 0.0410237 0.0255822 0.0263225 0.0300717 0.0287623 0.0360966 0.0321986 0.0301369 0.030491 0.0408902 0.0352642 0.0347114 0.0405472 0.0293447 0.0303131 0.0343871 0.0330893 0.0354408 0.0363741 0.0407846 0.035022 0.036517 0.0336092 0.031972 0.0283131 0.0284013 0.0381309 0.0342594 0.0320028 0.0338669 0.0376561 0.0398852 0.0331924 0.0386776 0.00118078 0.000812174 0.00122836 0.00205438 0.00105755 0.000899409 0.00110403 0.000781183 0.00102249 0.000904932 0.0015272 0.00125457 0.00132798 0.00185763 0.00179527 0.00164201 0.000914528 0.00140914 0.00141782 0.00121216 0.00114143 0.00160877 0.00116758 0.00114595 0.0012682 0.00132688 0.00144919 0.0015402 0.00114058 0.00158509 0.00116204 0.00135531 0.00131843 0.0010917 0.00132141 0.00135153 0.00180447 0.00190017 0.00171947 0.00160476 0.106595 0.143149 0.43852 0.277038 0.116626 0.129659 0.199681 0.229281 0.329399 0.327417 0.15448 0.192639 0.390446 0.22096 0.237239 0.337029 0.217604 0.17577 0.269533 0.285426 0.395553 0.224568 0.406623 0.429306 0.336535 0.376795 0.275654 0.294667 0.292607 0.181314 0.183385 0.137863 0.353727 0.299963 0.231471 0.259222 0.236517 0.263371 0.19765 0.320705 0.396927 0.304568 0.334918 0.37398 0.359013 0.373416 0.39158 0.319504 0.340205 0.357251 0.346477 0.378176 0.360023 0.329692 0.366057 0.375867 0.387758 0.332482 0.290195 0.351714 0.333106 0.341314 0.362717 0.314404 0.016584 0.0163869 0.0185389 0.00983271 0.0163005 0.0162638 0.0170981 0.0173867 0.0183303 0.018255 0.0138793 0.0133459 0.0152845 0.0117922 0.0111025 0.0122202 0.0170794 0.0133694 0.0145205 0.0145933 0.0124359 0.0111116 0.0104663 0.0146041 0.0158843 0.0128274 0.219485 0.238767 0.346189 0.366407 0.223535 0.234257 0.254031 0.271419 0.304997 0.307201 0.266764 0.277159 0.36257 0.326171 0.319576 0.369288 0.265622 0.274356 0.312091 0.318258 0.310598 0.322563 0.334875 0.337342 0.357058 0.286798 0.247803 0.348351 0.290961 0.305651 0.0188445 0.0116989 0.0125927 0.0160624 0.013898 0.0170258 0.0123211 0.0150532 0.0127522 0.0145499 0.0131804 0.0117102 0.0121828 0.0126939 0.0127655 0.0123628 0.188747 0.224792 0.0633659 0.200699 0.216815 0.204531 0.230601 0.225035 0.235459 0.145623 0.166685 0.182404 0.0997289 0.112574 0.122433 0.21996 0.154898 0.158634 0.17486 0.0511678 0.154145 0.180977 0.0892296 0.102693 0.204458 0.0881625 0.196635 0.145172 0.158865 0.212157 0.143267 0.157964 0.0553382 0.0618916 0.100864 0.115368 0.00793394 0.00716763 0.00823597 0.00706244 0.00758923 0.00816038 0.00759446 0.00778675 0.00697633 0.00762581 0.0142983 0.0173902 0.00995998 0.015559 0.0166342 0.0128471 0.0154328 0.0113581 0.0129841 0.0136765 0.0164067 0.0119477 0.0129941 0.0144656 0.0125001 0.0141656 0.0151648 0.0125059 0.0144069 0.00694563 0.0081469 0.0090574 0.00953703 0.0113383 0.00976001 0.0121318 0.0107317 0.0107622 0.011349 0.0010055 0.00117334 0.00174792 0.00116242 0.00109376 0.00110626 0.000631409 0.000816202 0.000931584 0.00101617 0.000989351 0.0013757 0.00153883 0.000983497 0.00130854 0.00131605 0.000723424 0.00115191 0.0008263 0.00112275 0.0870269 0.0930992 0.0898851 0.092279 0.122531 0.136262 0.179802 0.180185 0.0766075 0.0843346 0.0699616 0.074317 0.129832 0.0825968 0.123693 0.124982 0.144989 0.106392 0.156263 0.103553 0.0612469 0.0751532 0.0668948 0.100252 0.00488063 0.0078631 0.00608598 0.00499842 0.00514617 0.00627808 0.00523437 0.00503023 0.00490604 0.00515928 0.0051595 0.00507387 0.00415119 0.00936219 0.00937868 0.00882903 0.00623162 0.00662414 0.00627242 0.00927884 0.00899696 0.00918922 0.000721444 0.000845828 0.00078062 0.00080206 0.000839576 0.000712 0.000844309 0.000734205 0.000808603 0.000801686 0.0010572 0.00109143 0.000971046 0.000858815 0.00113032 0.000890511 0.00120968 0.00109007 0.00104406 0.00107937 0.000919068 0.000915788 0.000878408 0.000829981 0.00391288 0.000924971 0.00104011 0.00187809 0.00235023 0.00312361 0.00334274 0.00119083 0.00136727 0.00347821 0.00146214 0.00161383 0.0027541 0.00217847 0.00133786 0.00231094 0.00258946 0.00327197 0.00182471 0.0015573 0.00135274 0.00256465 0.00235661 0.00216845 0.00171171 0.00161668 0.00137634 0.00163145 0.00252086 0.00159697 0.00185967 0.00278313 0.00314364 0.00330305 0.002206 0.00158082 0.00213399 0.00154312 0.00238103 0.00232589 0.00165867 0.00705594 0.00361173 0.00603077 0.00511108 0.00579781 0.00390395 0.00459779 0.00372057 0.00474299 0.0158371 0.0150806 0.0604961 0.082077 0.0149213 0.0151208 0.0185263 0.0209107 0.038004 0.0328546 0.0190356 0.0245119 0.0704655 0.0471883 0.042773 0.0777687 0.0213135 0.0246394 0.0381711 0.0389084 0.0598374 0.0606053 0.0712493 0.0328916 0.017877 0.0364738 0.0462757 0.0607494 0.0734799 0.05608 0.0482211 0.0556126 0.0498598 0.0667655 0.0559818 0.0645108 0.0339976 0.0413291 0.0524025 0.0361653 0.0390385 0.0419342 0.0627743 0.0452463 0.0495429 0.0534681 0.035855 0.0411304 0.0463179 0.0442935 0.0104806 0.0100487 0.008503 0.00823814 0.00998136 0.00751973 0.00745737 0.00710531 0.0105031 0.00901851 0.00632578 0.00531309 0.00768171 0.0966185 0.122757 0.0916703 0.102128 0.118978 0.0861569 0.117281 0.0809826 0.104179 0.102004 0.127322 0.0842974 0.0988938 0.116522 0.0875464 0.101712 0.115065 0.0884988 0.109903 0.072358 0.0839491 0.067689 0.0826983 0.0775937 0.0736908 0.0833824 0.0878743 0.0890998 0.0902183 0.0885549 0.0943082 0.0775784 0.0694319 0.0955296 0.0802865 0.0786222 0.00295722 0.00411897 0.00270544 0.00380419 0.00415636 0.00508824 0.00443764 0.0057718 0.00633478 0.00607352 0.00349112 0.00471193 0.0044496 0.00528956 0.00198895 0.00232722 0.00232611 0.00353178 0.00615939 0.00498743 0.00380698 0.00401079 0.00519456 0.00262284 0.00290168 0.00319948 0.00170085 0.00191434 0.00207496 0.00243142 0.00182243 0.00263717 0.00288212 0.00173326 0.00146955 0.0018901 0.00189991 0.00223461 0.00165514 0.00258279 0.00115382 0.00197572 0.00222516 0.00118476 0.00180813 0.000942368 0.00132917 0.00107132 0.00167067 0.00114334 0.000617749 0.000963159 0.00111775 0.00144602 0.00128829 0.000722913 0.00117595 3.72529e-09 3.72529e-09 0.000166462 1.35329e-05 3.72529e-09 3.72529e-09 4.74209e-05 3.72529e-09 8.31642e-05 6.8089e-05 3.72529e-09 3.72529e-09 0.000131775 3.72529e-09 3.72529e-09 8.79747e-05 2.98125e-05 3.72529e-09 4.19945e-05 3.673e-05 0.000369832 0.000317185 0.000223534 0.000207737 7.46994e-05 0.000141943 0.00141202 0.00164398 0.00177198 0.00154982 0.00159809 0.00195149 0.00237641 0.00201855 0.00232312 0.00255284 0.00237009 0.00170364 0.00217773 0.00197584 0.00217474 0.00130684 0.00140893 0.00142133 0.00143523 0.00164959 0.00156674 0.00179707 0.00143564 0.00175227 0.00152358 0.00166735 0.00159091 0.00151427 0.00155649 0.00174086 0.00206083 0.00205956 0.312058 0.303353 0.322846 0.311811 0.309253 0.318698 0.310322 0.322078 0.316739 0.315893 0.296579 0.237365 0.258824 0.271264 0.278192 0.315248 0.331741 0.249381 0.28505 0.293726 0.299823 0.30381 0.276433 0.315953 0.00331441 0.00308362 0.00289071 0.00182635 0.000795147 0.00174774 0.401369 0.351362 0.376832 0.385226 0.395967 0.401057 0.399572 0.364347 0.380262 0.394349 0.382084 0.387929 0.395934 0.377986 0.393756 0.371721 0.380483 0.36453 0.338284 0.384749 0.372746 0.358758 0.369265 0.390997 0.00156457 0.00219834 0.00140436 0.00177632 0.00184694 0.00129044 0.00164305 0.00117641 0.00135566 0.00133192 0.00100109 0.00124207 0.00134344 0.00142897 0.00143726 0.00128741 0.00135808 0.00126159 0.00143401 0.00130737 0.0011728 0.00134575 0.00136092 0.0324916 0.0298184 0.0321346 0.0350244 0.0352819 0.0288636 0.0307142 0.0372981 0.0310347 0.0317064 0.034564 0.0311664 0.0297597 0.0325982 0.0337512 0.02727 0.0331466 0.0369629 0.0295674 0.0313282 0.0306581 0.0276168 0.0271696 0.0269015 0.0347624 0.0324961 0.0288229 0.0312599 0.0291731 0.030972 0.0292958 0.0333486 0.00204094 0.00286123 0.00232611 0.0037787 0.00277502 0.00421685 0.00371068 0.0031669 0.00226471 0.00232449 0.00217224 0.00316122 0.00273515 0.00415809 0.00384736 0.00308162 0.00373205 0.00403465 0.00407595 0.00298018 0.00460667 0.00256815 0.00421004 0.00328669 0.00354601 0.00260956 0.00348867 0.00278824 0.0210334 0.0259777 0.0160644 0.0172571 0.0185463 0.0189121 0.0170626 0.0180079 0.0218534 0.0217142 0.0210067 0.0225421 0.0162324 0.0173781 0.0193381 0.0193871 0.0210824 0.0204642 0.0206699 0.0225856 0.0244518 0.0191745 0.0171563 0.0222418 0.018194 0.0199605 0.0347219 0.0318787 0.032305 0.0243005 0.0173342 0.0271192 0.0229601 0.0218061 0.0253857 0.0211583 0.401633 0.344425 0.365583 0.379506 0.384444 0.396422 0.391767 0.35596 0.371231 0.377904 0.382804 0.388368 0.396362 0.375061 0.392666 0.371111 0.379408 0.359616 0.331413 0.383004 0.364993 0.356994 0.36592 0.386313 0.00639459 0.00527986 0.00375465 0.00636984 0.00601797 0.00559164 0.00497061 0.0047314 0.00443421 0.00547022 0.00420357 0.00458475 0.00445935 0.00458336 0.00471529 0.00438626 0.00466471 0.00447032 0.00461527 0.00464378 0.0381975 0.0444675 0.0403922 0.0428573 0.0532322 0.0596266 0.0776417 0.0764894 0.0386023 0.0472616 0.0414604 0.0454655 0.0573309 0.0429599 0.0552512 0.0592039 0.0663038 0.0468143 0.0699368 0.0476554 0.0351158 0.0365902 0.0374161 0.0458555 0.00134127 0.00125984 0.00152456 0.00189211 0.00127089 0.00121015 0.00130947 0.00139292 0.0011155 0.00119849 0.00118271 0.00130351 0.157716 0.174023 0.166188 0.164976 0.170843 0.15618 0.173343 0.162936 0.170724 0.198574 0.219092 0.205968 0.248663 0.255041 0.243929 0.165704 0.209685 0.205782 0.213573 0.195002 0.222829 0.221788 0.181924 0.191912 0.228719 0.232987 0.00376613 0.00386389 0.0019289 0.00230664 0.00165404 0.00239123 0.00196508 0.00184002 0.00200886 0.00174865 0.00184661 0.00187569 0.00201891 0.00105162 0.000920563 0.00257121 0.00170036 0.00330202 0.00275623 0.00187288 0 6.90996e-05 0.000690944 0.000809308 0.000371408 0.000592747 0.000922525 0.000943259 0 0.000579523 0.00072195 6.46518e-05 0.000709977 0.000906465 0.000496367 0.000652559 0.000320673 0.000256821 0.00011244 0.000636669 0.000767058 0.00063712 0.00967615 0.0156914 0.0125581 0.00973613 0.00979025 0.0123757 0.0101582 0.0106757 0.0102275 0.0132607 0.0105601 0.00722349 0.00625009 0.0114541 0.00985494 0.00826161 0.00860864 0.00883072 0.00679838 0.0177302 0.0152318 0.0114487 0.010527 0.0139719 0.0116484 0.0103671 0.0114226 0.00756246 0.00812762 0.00927764 0.00896744 0.00779484 0.00981685 0.00710355 0.00417321 0.00428287 0.00484949 0.00448463 0.00483562 0.00418825 0.00450526 0.00422784 0.0044802 0.0036805 0.00381902 0.00400545 0.00403034 0.00420868 0.0040948 0 0 0 0.000333241 0.000591037 0.000394189 0.01079 0.00689116 0.0137499 0.0115219 0.00957884 0.0140696 0.00896196 0.0113799 0.00968822 0.0139232 0.0145512 0.0137238 0.0128405 0.0126725 0.0119831 0.0139372 0.00378432 0.0039345 0.00396215 0.00421547 0.00414767 0.00443339 0.00434238 0.0042238 0.305918 0.320456 0.31461 0.331395 0.324357 0.338591 0.337603 0.329476 0.287339 0.292122 0.298428 0.296978 0.314585 0.304868 0.316243 0.306959 0.326206 0.000544871 0.000332212 0.000167598 0.000192965 0.000512902 0.000432307 0.000455426 0.000297313 0.000323858 0.00024314 0.000455709 1.49012e-08 1.49012e-08 0.000189257 1.49012e-08 1.49012e-08 0.000386671 0.000251219 0.00028365 1.49012e-08 0.000366979 0.000571102 0.000383464 0.000270308 0.000470553 0.000225474 0.000518449 0.000373359 0.000407186 0.000560639 0.000463476 0.0005992 0.000377235 0.000414717 0.000532563 0.000429827 0.000426091 0.000260839 0.000401963 0.000205774 0.026957 0.0297271 0.0301648 0.0315462 0.0285241 0.0284256 0.0296772 0.0277307 0.0260218 0.0247507 0.0280177 0.0256869 0.0375088 0.0269522 0.0273411 0.0319075 0.0303404 0.038988 0.0407971 0.0271567 0.0333627 0.0312229 0.0319068 0.0342587 0.0359329 0.0330213 0.0362672 0.0364538 0.0366302 0.028149 0.0252624 0.0351196 0.0295571 0.0307649 0.0319483 0.0388979 0.326054 0.33678 0.329979 0.00133413 0.00143231 0.0025023 0 0.00138214 0.00136438 0.00169086 0.00175139 0.0021842 0.00208074 0.000892873 0.0010557 0.00186125 0.000467407 0.000591515 0.0011368 0.00176413 0.000978459 0.00139327 0.00145484 0.000228208 1.49012e-08 1.49012e-08 5.63174e-05 1.49012e-08 0.000143718 1.49012e-08 5.36518e-05 1.49012e-08 0.000202705 0 0 6.47947e-05 0 0 1.49012e-08 0 0.000119385 0 0.398595 0.382098 0.399618 0.378669 0.387952 0.385966 0.39906 0.379989 0.391327 0.398087 0.390683 0.389714 0.393116 0.385481 0.394435 0.37031 0.372704 0.373357 0.375611 0.380055 0.376863 0.377878 0.387964 0.383108 0.381945 0.430199 0.467345 0.460348 0.486122 0.441136 0.456728 0.43915 0.461513 0.449823 0.459222 0.449808 0.474558 0.46959 0.471989 0.480868 0.478186 0.450991 0.464039 0.45974 0.470341 0.436331 0.442961 0.45192 0.431602 0.428007 0.43949 0.00263305 0.00256824 0.00280419 0.00351503 0.00398612 0.00362662 0.00419728 0.00410909 0.00256188 0.00325906 0.00342916 0.10595 0.132357 0.230105 0.11163 0.122151 0.137726 0.166628 0.182374 0.198161 0.164193 0.177067 0.233311 0.23736 0.236517 0.259655 0.151858 0.172689 0.199945 0.20553 0.178125 0.193257 0.212125 0.217205 0.258238 0.154508 0.125652 0.226551 0.165175 0.198823 0.224969 0.156929 0.248128 0.210281 0.223499 0.24886 0.192355 0.000749124 0 0.000481157 0.000226273 0.00105957 0.00071924 0.00124971 0.00112551 0.000891066 0.000560318 0.00102185 0.000938366 0.000909993 0.000709827 0.00115448 0.00103394 0.00120806 0.00102768 0.00102439 0.000948702 0.00122865 0.00113716 0.0011998 0.0010306 0.497104 0.48217 0.494428 0.48214 0.494145 0.473758 0.48924 0.481002 0.488733 0.304765 0.305528 0.312801 0.497152 0.500857 0.489964 0.00201748 0.00235593 0.00206575 0.00220133 0.00238697 0.00251911 0.00312837 0.00302479 0.00271448 0.00295542 0.00403364 0.00355212 0.00360624 0.00413173 0.00252209 0.00288342 0.00326413 0.00337906 0.00377518 0.00360052 0.00298782 0.00235036 0.00293718 0.00324744 0.00386667 0.0399589 0.0541665 0.0266911 0.0287787 0.036293 0.0524341 0.0386852 0.02731 0.145434 0.157744 0.232121 0.230351 0.140342 0.163832 0.230801 0.234774 0.156258 0.154483 0.225659 0.232337 0.218497 0.138758 0.218105 0.00453176 0.00157506 0.00198965 0.00231404 0.00312785 0.00349409 0.00382843 0.0027326 0.00268454 0.00371123 0.00289335 0.00397946 0.00418997 0.00442512 0.00308116 0.00236911 0.0033389 0.00199167 0.00218563 0.00254915 0.358085 0.370319 0.32904 0.338287 0.39852 0.405655 0.363722 0.426261 0.42609 0.415588 0.363951 0.402739 0.37647 0.385233 0.344197 0.407398 0.318179 0.354943 0.354691 0.32715 0.376542 0.413268 0.392539 0.390703 0.332912 0.416957 0.396001 0.37278 0.00454004 0.00461902 0.00362235 0.00384175 0.00365584 0.00411934 0.00385641 0.00406891 0.00390495 0.00297682 0.00336033 0.00434541 0.0199788 0.0240853 0.0168862 0.0215531 0.0229155 0.0192874 0.0218616 0.0179325 0.0194535 0.0190305 0.0214114 0.0175472 0.0181772 0.0194678 0.01772 0.0206335 0.0202132 0.0182292 0.0197549 0.0163154 0.0158282 0.0161721 0.0179249 0.0174692 0.01744 0.0167444 0.00439277 0.00419112 0.00313105 0.112237 0.0785152 0.0943996 0.0997437 0.0904948 0.0855267 0.087891 0.0927124 0.102972 0.0783625 0.0932704 0.0677711 0.0712924 0.0815786 0.0807338 0.346713 0.35468 0.32752 0.332496 0.151398 0.186748 0.238378 0.247949 0.177079 0.16218 0.182585 0.151819 0.105305 0.0983551 0.0873636 0.0940377 0.087465 0.101062 0.086467 0.0875686 0.091725 0.0778054 0.081533 0.0965021 0.00137325 0.00182828 0.00146996 0.0811731 0.104147 0.127075 0.120535 0.100814 0.0970838 0.115616 0.0910263 0.0995387 0.104144 0.107955 0.0692053 0.077737 0.145865 0.146383 0.0512002 0.0571067 0.0945822 0.0922766 0.0785528 0.0565185 0.111916 0.119592 0.123676 0.082172 0.0647442 0.0524512 0.127985 0.100282 0.107812 0.0836894 0.0730718 0.0718943 0.0151962 0.0178401 0.0160124 0.0158676 0.014941 0.0177844 0.0162798 0.0175894 0.0993981 0.105515 0.115907 0.119127 0.106252 0.106662 0.112943 0.0999178 0.101633 0.0950913 0.107049 0.0932623 0.00492628 0.00512792 0.00568305 0.00569495 0.0050251 1.49012e-08 1.49012e-08 1.49012e-08 0 0 0 0.000936789 0.00170074 0.00331182 0.00390499 0.00251697 0.00261474 0.00340148 0.0108771 0.0135197 0.0159385 0.0121224 0.0136952 0.0111971 0.0109663 0.0147627 0.0119868 0.013666 0.00822756 0.00921984 0.0100142 0.00921561 0.00991107 0.00998978 0.0120618 0.0102763 0.0113481 0.0107016 0.00776465 0.00820014 0.00896925 0.00978189 0.404477 0.426151 0.439694 0.448047 0.418807 0.430854 0.435061 0.414801 0.39554 0.412773 0.42006 0.423804 0.000759457 0.000495141 0.00154115 0.00143948 0.000671676 0.000544089 0.000984035 0.000632557 0.00124979 0.000973149 0.000914349 0.000543641 0.0014359 0.00113584 0.000808216 0.00139928 0.000799029 0.000716466 0.00120758 0.00085539 0.00155559 0.00157774 0.00157163 0.00160915 0.00153463 0.00121445 0.000941723 0.00155221 0.00120575 0.00123836 0.00145987 0.00149813 0.00143535 0.00105964 0.000777674 0.00157416 0.00154219 0.00110091 0.00159544 0.00115905 3.40506e-05 3.72529e-09 0 0.000835147 3.72529e-09 3.72529e-09 5.61725e-05 3.72529e-09 5.44108e-05 0 0.000117883 3.72529e-09 3.72529e-09 0.000379385 0 3.72529e-09 3.72529e-09 3.72529e-09 3.72529e-09 3.72529e-09 0.000466223 0.000203326 8.68782e-05 0.000336965 0.000518975 0.000433136 0.000245421 0.000108059 0.000185303 0.000299257 0.00116574 0.00104679 0.000993173 0.000831159 0.000309698 0.000911209 0.000633057 0.000586889 0.000673511 0.00060052 0.233502 0.248728 0.14851 0.155345 0.292387 0.317251 0.127518 0.269117 0.282184 0.185342 0.240654 0.305872 0.210946 0.221226 0.113178 0.180526 0.133934 0.230866 0.121631 0.146548 0.201245 0.246491 0.284009 0.163558 0.106305 0.25912 0.166821 0.188027 0.0586742 0.0673369 0.0664866 0.0699213 0.0643949 0.112863 0.126567 0.0592059 0.0548636 0.10318 0.117983 0.0633945 0.015039 0.0130518 0.0143962 0.0157019 0.0261958 0.0258497 0.0251466 0.0235272 0.0222052 0.0211303 0.0204599 0.0230946 0.0188927 0.0186421 0.0207862 0.000348695 0.000261458 0 0.000281157 0 0.000546363 0.000722042 7.34511e-05 0.00042715 3.72529e-09 0.000663939 0.000487125 0.000419511 0.000741699 0.000574442 0.000974482 0.000862909 0.000624545 0.000611409 0.00065066 0.000429691 0.000757571 0.000571213 0.000794842 0.472395 0.444414 0.470482 0.484699 0.462935 0.472259 0.480132 0.458985 0.465205 0.478131 0.448757 0.477636 0.462485 0.440502 0.432348 0.456958 0.455794 0.466667 0.449085 0.471836 1.49012e-08 1.49012e-08 0.000705081 0.00117714 1.49012e-08 0.00112257 1.49012e-08 0.000615627 0.000696397 0.340711 0.365029 0.362294 0.372433 0.352048 0.312568 0.325064 0.307496 0.000654639 0.000398745 0.00113305 0.00182175 0.000562819 0.000437412 0.000820424 0.000463814 0.000859924 0.000606503 0.000959627 0.000619338 0.00118487 0.00128675 0.00115541 0.0014355 0.000598015 0.000780093 0.0010743 0.00079038 0.00121196 0.00132577 0.00116638 0.00162563 0.00172364 0.00107603 0.000812597 0.00149999 0.0010044 0.00127127 0.00187124 0.00195999 0.00179753 0.0013521