# vtk DataFile Version 5.1
vtk output
ASCII

DATASET UNSTRUCTURED_GRID
POINTS 3925 float
0 0 0
0.166667 0 0
0.333333 0 0
0.5 0 0
0.666667 0 0
0.833333 0 0
1 0 0
0.316252 0.18598 -0.12198
0.421566 0.133819 -0.0794228
0.58006 0.133108 -0.0208978
0.747478 0.159982 0.0633809
0.899672 0.197255 0.160663
1.0209 0.218928 0.256439
1.11984 0.197339 0.312716
0.656425 0.341651 -0.122552
0.716459 0.289432 -0.0355754
0.818193 0.291811 0.0862484
0.921961 0.330701 0.245454
1.01126 0.377759 0.41578
1.06855 0.390404 0.564499
1.12085 0.344397 0.656864
0.951635 0.4992 0.0461193
0.956405 0.449233 0.150833
0.979538 0.456598 0.306182
0.987176 0.499891 0.498369
0.980324 0.544959 0.692222
0.955454 0.550639 0.848204
0.952122 0.500031 0.952478
1.12063 0.655272 0.342079
1.06833 0.609386 0.434599
1.00943 0.623886 0.582499
0.921873 0.669247 0.751812
0.818671 0.708913 0.912706
0.715845 0.708938 1.03442
0.65642 0.655641 1.12101
1.11854 0.799857 0.685721
1.02165 0.780479 0.743328
0.898144 0.805068 0.840613
0.746173 0.841397 0.936534
0.579675 0.863858 1.01925
0.42282 0.858799 1.07959
0.312593 0.8029 1.11996
1 1 1
0.833333 1 1
0.666667 1 1
0.5 1 1
0.333333 1 1
0.166666 1 1
-2.38419e-07 1 1
0 0 0.166667
0.166667 0 0.166667
0.333333 0 0.166667
0.5 0 0.166667
0.666667 0 0.166667
0.833333 0 0.166667
1 0 0.166667
0.255963 0.218601 -0.0233952
0.372238 0.171909 0.0499745
0.512377 0.161185 0.127344
0.660039 0.161994 0.211485
0.807997 0.167844 0.29511
0.950646 0.17143 0.371016
1.07955 0.14143 0.422771
0.562583 0.388432 -0.0694397
0.61494 0.3349 0.0480456
0.69076 0.324402 0.184209
0.774582 0.329253 0.333777
0.865203 0.337577 0.482678
0.952479 0.33599 0.616568
1.0341 0.291468 0.716119
0.845547 0.550265 0.0428948
0.827888 0.500052 0.170299
0.820754 0.49301 0.325804
0.817281 0.499922 0.498329
0.821997 0.507241 0.672788
0.830033 0.500241 0.830496
0.847664 0.449768 0.955907
1.03264 0.70965 0.28242
0.949462 0.665098 0.383221
0.864116 0.6627 0.515957
0.775911 0.670313 0.663841
0.692545 0.675268 0.814699
0.61619 0.664325 0.952735
0.564312 0.609811 1.06871
1.07791 0.858015 0.57691
0.948868 0.829252 0.627503
0.808136 0.831728 0.703899
0.661512 0.837202 0.787639
0.513093 0.838707 0.872376
0.370902 0.828786 0.950721
0.256294 0.780988 1.0209
1 1 0.833333
0.833333 1 0.833333
0.666667 1 0.833333
0.5 1 0.833333
0.333333 1 0.833333
0.166666 1 0.833333
-2.38419e-07 1 0.833333
0 0 0.333333
0.166667 0 0.333333
0.333333 0 0.333333
0.5 0 0.333333
0.666667 0 0.333333
0.833333 0 0.333333
1 0 0.333333
0.158829 0.197475 0.0995956
0.296518 0.169052 0.189794
0.436725 0.16341 0.273936
0.58043 0.162382 0.355843
0.72553 0.163119 0.436605
0.872211 0.161524 0.513302
1.01915 0.136307 0.579655
0.415154 0.376829 -0.0112189
0.483054 0.33744 0.133136
0.557648 0.329546 0.274209
0.638746 0.329163 0.416728
0.724581 0.329894 0.557787
0.814605 0.324958 0.692695
0.912388 0.291268 0.818374
0.690505 0.544 0.0191028
0.673116 0.506898 0.177332
0.662907 0.499894 0.335852
0.660017 0.499903 0.499546
0.663137 0.500159 0.663367
0.672324 0.493055 0.822396
0.692136 0.45519 0.980335
0.911249 0.70873 0.180299
0.814291 0.675819 0.308061
0.724051 0.670367 0.441625
0.63877 0.670499 0.582359
0.557756 0.670464 0.724735
0.482675 0.662459 0.865153
0.415625 0.622433 1.01085
1.01909 0.864528 0.418651
0.870952 0.839599 0.487022
0.724844 0.837011 0.562971
0.580423 0.837205 0.643705
0.43657 0.836995 0.725262
0.295152 0.832246 0.808125
0.160629 0.802752 0.899648
1 1 0.666667
0.833333 1 0.666667
0.666667 1 0.666667
0.5 1 0.666667
0.333333 1 0.666667
0.166666 1 0.666667
-1.78814e-07 1 0.666666
0 0 0.5
0.166667 0 0.5
0.333333 0 0.5
0.5 0 0.5
0.666667 0 0.5
0.833333 0 0.5
1 0 0.5
0.0623266 0.159916 0.252488
0.21394 0.162919 0.337351
0.356182 0.162746 0.419307
0.499823 0.162271 0.499652
0.643715 0.162709 0.580206
0.787557 0.162925 0.66143
0.936192 0.158657 0.746175
0.245527 0.331874 0.0773413
0.335327 0.329246 0.223321
0.416621 0.329318 0.36034
0.49956 0.329025 0.499548
0.582612 0.329406 0.638849
0.663839 0.329704 0.775863
0.751377 0.330825 0.921582
0.498117 0.501007 0.0125426
0.500123 0.499683 0.181538
0.499309 0.5 0.338635
0.499325 0.500029 0.49944
0.499503 0.500163 0.660038
0.498321 0.500028 0.817295
0.49821 0.500219 0.986653
0.751078 0.669782 0.0776877
0.665112 0.670132 0.224151
0.582257 0.671022 0.36042
0.499334 0.671102 0.499532
0.416815 0.670898 0.638599
0.333722 0.670747 0.774448
0.245603 0.669412 0.92129
0.93659 0.841718 0.251981
0.787436 0.837794 0.339065
0.643529 0.83778 0.419281
0.499626 0.837813 0.499723
0.355948 0.837534 0.580333
0.211456 0.838206 0.65994
0.0636533 0.840039 0.747157
1 1 0.5
0.833333 1 0.5
0.666667 1 0.5
0.5 1 0.5
0.333333 1 0.5
0.166667 1 0.5
-1.78814e-07 1 0.5
0 0 0.666667
0.166667 0 0.666667
0.333333 0 0.666667
0.5 0 0.666667
0.666667 0 0.666667
0.833333 0 0.666667
1 0 0.666667
-0.021234 0.133019 0.420059
0.128308 0.161809 0.486225
0.274264 0.163232 0.563269
0.419353 0.162445 0.643724
0.563087 0.163167 0.72504
0.703898 0.168504 0.808314
0.840833 0.194825 0.898333
0.0860046 0.291748 0.179941
0.184764 0.324291 0.30775
0.27432 0.329777 0.441655
0.360196 0.329241 0.582319
0.441692 0.329611 0.72416
0.515715 0.337495 0.864231
0.582326 0.375972 1.00935
0.306698 0.456646 0.0182612
0.32598 0.492882 0.177408
0.335775 0.500158 0.33591
0.338607 0.49988 0.49931
0.335826 0.500145 0.66298
0.32569 0.507078 0.82079
0.306145 0.543295 0.979435
0.582727 0.623839 -0.0113795
0.51607 0.662179 0.133676
0.441582 0.670249 0.274365
0.360244 0.670845 0.416587
0.274206 0.67043 0.557553
0.184333 0.675619 0.69061
0.0863856 0.707965 0.818284
0.842185 0.802138 0.0996026
0.704535 0.831287 0.190527
0.563266 0.836925 0.274255
0.419204 0.837362 0.356149
0.273963 0.836658 0.436672
0.127416 0.838836 0.512316
-0.0208292 0.866821 0.57997
1 1 0.333333
0.833333 1 0.333333
0.666667 1 0.333333
0.5 1 0.333333
0.333333 1 0.333333
0.166667 1 0.333333
-1.78814e-07 1 0.333333
0 0 0.833333
0.166667 0 0.833333
0.333333 0 0.833333
0.5 0 0.833333
0.666667 0 0.833333
0.833333 0 0.833333
1 0 0.833333
-0.077941 0.134714 0.577737
0.0480785 0.171146 0.628937
0.190511 0.168712 0.704677
0.338998 0.162418 0.787586
0.486821 0.160654 0.870952
0.627619 0.170674 0.949033
0.743429 0.219456 1.02151
-0.0353713 0.288869 0.282601
0.0465737 0.334637 0.383073
0.133658 0.337908 0.516083
0.224141 0.329707 0.665484
0.308252 0.32421 0.814378
0.383215 0.334937 0.949622
0.434778 0.390437 1.06841
0.151274 0.449507 0.042268
0.168883 0.499979 0.169154
0.177349 0.507009 0.326201
0.181422 0.500222 0.500503
0.17736 0.493051 0.673134
0.170306 0.499946 0.827749
0.150904 0.550708 0.956576
0.434946 0.612141 -0.0702447
0.382744 0.665154 0.0467779
0.307657 0.675744 0.18496
0.223263 0.670765 0.335503
0.133047 0.662615 0.483232
0.0480647 0.665131 0.615101
-0.0356973 0.710584 0.716505
0.742974 0.779919 -0.0238556
0.628783 0.828868 0.0482569
0.486324 0.838435 0.128342
0.337439 0.837284 0.213905
0.189843 0.83089 0.296679
0.0499449 0.828146 0.372292
-0.0795732 0.866175 0.421757
1 1 0.166666
0.833333 1 0.166666
0.666667 1 0.166666
0.5 1 0.166666
0.333333 1 0.166666
0.166667 1 0.166666
-1.19209e-07 1 0.166666
0 0 1
0.166667 0 1
0.333333 0 1
0.5 0 1
0.666667 0 1
0.833333 0 1
1 0 1
-0.121504 0.184643 0.682767
-0.023918 0.220033 0.74326
0.0994976 0.197936 0.84231
0.251874 0.158391 0.937045
0.41881 0.135326 1.01972
0.576719 0.142021 1.07818
0.685818 0.200268 1.11852
-0.125063 0.341408 0.341385
-0.0703909 0.387911 0.435298
-0.0115156 0.37628 0.582968
0.0774913 0.330228 0.751651
0.180273 0.29127 0.911791
0.282542 0.290347 1.03285
0.34209 0.344965 1.12086
0.0444041 0.499994 0.0447742
0.042028 0.550676 0.151591
0.0180361 0.543453 0.307056
0.0121721 0.49912 0.498372
0.0188979 0.456057 0.691005
0.042857 0.449816 0.845913
0.0462135 0.50084 0.952123
0.340937 0.658578 -0.124736
0.282296 0.711406 -0.0351133
0.179695 0.708492 0.0862262
0.0770542 0.668365 0.245641
-0.011447 0.623276 0.415464
-0.0695665 0.611672 0.562746
-0.122644 0.658407 0.656805
0.682489 0.81542 -0.121401
0.577582 0.865412 -0.0777757
0.419908 0.867086 -0.0210027
0.252318 0.84033 0.0624013
0.0994968 0.802804 0.158797
-0.0234885 0.781352 0.256124
-0.122044 0.813961 0.316328
1 1 -3.27826e-07
0.833333 1 -3.27826e-07
0.666667 1 -3.8743e-07
0.5 1 -3.8743e-07
0.333333 1 -3.8743e-07
0.166667 1 -4.47035e-07
-1.19209e-07 1 -4.47035e-07
0.199552 0.0904881 0.00761762
0.354826 0.0816893 0.0380835
0.522385 0.0806043 0.0789739
0.690996 0.0831819 0.12114
0.847854 0.0893406 0.161461
0.990254 0.0908442 0.200719
0.489407 0.258373 -0.0637221
0.593342 0.231851 0.026899
0.717876 0.237456 0.143597
0.846207 0.254722 0.271755
0.964681 0.272634 0.392707
1.06314 0.261296 0.490059
0.776862 0.419348 0.0110152
0.814576 0.394446 0.139232
0.859831 0.405725 0.303569
0.907851 0.426134 0.483715
0.953227 0.441355 0.648131
0.98765 0.420273 0.777661
0.987281 0.580386 0.221391
0.952001 0.56023 0.35129
0.90727 0.575598 0.51737
0.859141 0.595637 0.697326
0.815475 0.606396 0.860286
0.777376 0.580109 0.987934
1.06279 0.739246 0.509747
0.963446 0.729364 0.607167
0.845231 0.746534 0.728742
0.71712 0.762867 0.856691
0.594245 0.767039 0.972523
0.489748 0.738979 1.06322
0.989905 0.90814 0.797508
0.846136 0.909299 0.837693
0.690382 0.916813 0.880524
0.522248 0.920987 0.921879
0.354779 0.919623 0.960518
0.200502 0.909234 0.990261
0.161833 0.0885728 0.151509
0.319217 0.0823588 0.196138
0.481234 0.0808145 0.238524
0.643362 0.081134 0.2801
0.803158 0.0825847 0.319379
0.960355 0.0805476 0.35486
0.39194 0.272057 0.0339988
0.495171 0.248433 0.14817
0.609638 0.244509 0.264738
0.729413 0.246838 0.38281
0.851171 0.2485 0.495592
0.972386 0.233249 0.594235
0.647079 0.440118 0.0455524
0.672756 0.415503 0.194781
0.709152 0.413229 0.353755
0.753502 0.416291 0.516752
0.80401 0.415861 0.673578
0.860022 0.393983 0.815752
0.859341 0.605825 0.183345
0.803415 0.584787 0.325561
0.753191 0.584322 0.482087
0.709434 0.587064 0.645052
0.673473 0.584458 0.804015
0.647927 0.559005 0.953347
0.972146 0.767459 0.404634
0.850584 0.752506 0.503445
0.729142 0.753536 0.616051
0.60987 0.755455 0.734486
[...]
POINT_DATA 3925
SCALARS Displacements float 1
LOOKUP_TABLE default
0 1.49012e-08 0 0 0 0 0 0.33951 0.269 0.249874 0.255553 0.284674 0.321984 0.336295 0.667819 0.552688 0.494218 0.488166 0.541843 0.6142 0.66798 0.952753 0.805615 0.716388 0.696931 0.761298 0.858445 0.95368 1.17173 1.00257 0.893446 0.862093 0.926241 1.04193 1.17253 1.31243 1.13417 1.01313 0.968381 1.02341 1.15528 1.31444 1.41421 1.20185 1.05409 1 1.05409 1.20185 1.41421 1.49012e-08 2.10734e-08 1.49012e-08 1.49012e-08 1.49012e-08 1.49012e-08 1.49012e-08 0.323014 0.236441 0.183393 0.166262 0.19098 0.235677 0.269359 0.612602 0.463705 0.357969 0.321462 0.373226 0.465418 0.552099 0.856035 0.661231 0.512788 0.458985 0.52947 0.663838 0.805376 1.03999 0.812199 0.635413 0.568615 0.648606 0.815512 1.00336 1.1536 0.907869 0.716979 0.641645 0.722246 0.910278 1.13383 1.20185 0.942809 0.745356 0.666667 0.745356 0.942809 1.20185 0 1.49012e-08 0 0 0 0 0 0.284269 0.193573 0.119283 0.0836303 0.118922 0.184192 0.248923 0.541258 0.374429 0.232007 0.161934 0.23183 0.359947 0.494682 0.759917 0.529976 0.329583 0.230721 0.330053 0.514932 0.717913 0.924966 0.648182 0.405464 0.285106 0.40629 0.637033 0.895816 1.02313 0.720886 0.453903 0.320645 0.454495 0.717682 1.01301 1.05409 0.745356 0.471404 0.333333 0.471404 0.745356 1.05409 0 1.49012e-08 0 0 0 0 0 0.255327 0.169421 0.0839569 0.00441273 0.0835191 0.167837 0.254436 0.4888 0.324059 0.162659 0.00435467 0.162357 0.323793 0.48944 0.696948 0.461098 0.231488 0.000877431 0.231421 0.461421 0.699017 0.86167 0.569695 0.28542 0.0045096 0.28575 0.570044 0.864065 0.968909 0.641307 0.320557 0.00450348 0.320963 0.642134 0.96844 1 0.666667 0.333333 1.78814e-07 0.333333 0.666667 1 0 1.49012e-08 0 0 0 0 0 0.249797 0.184538 0.11913 0.0839529 0.118947 0.191888 0.282482 0.496012 0.359486 0.232648 0.163329 0.232235 0.374073 0.541944 0.718591 0.514593 0.330766 0.2325 0.330861 0.530571 0.762321 0.89507 0.637324 0.406978 0.286512 0.407364 0.649504 0.92703 1.01578 0.718343 0.454829 0.320882 0.45511 0.722615 1.02505 1.05409 0.745356 0.471405 0.333334 0.471405 0.745356 1.05409 0 1.49012e-08 0 0 0 0 0 0.26912 0.23635 0.192237 0.167429 0.183837 0.236053 0.322533 0.553656 0.466003 0.374885 0.322931 0.359031 0.4649 0.614813 0.806981 0.664183 0.530626 0.460725 0.51491 0.663051 0.859491 1.00429 0.815697 0.648945 0.569592 0.63823 0.815031 1.04319 1.13562 0.910998 0.721419 0.640417 0.717889 0.909001 1.15583 1.20185 0.942809 0.745356 0.666667 0.745356 0.942809 1.20185 0 1.49012e-08 0 0 0 0 0 0.340181 0.32417 0.283766 0.256121 0.250607 0.269389 0.33747 0.670433 0.614869 0.542845 0.490102 0.496114 0.553442 0.66902 0.956257 0.859012 0.762543 0.69972 0.719037 0.806916 0.954988 1.1753 1.04251 0.927543 0.864837 0.896327 1.00471 1.17396 1.31288 1.1539 1.02522 0.969787 1.01501 1.13587 1.31406 1.41421 1.20185 1.05409 1 1.05409 1.20185 1.41421 0.138891 0.114188 0.105843 0.114108 0.125361 0.138748 0.431962 0.348422 0.307435 0.323462 0.377243 0.432446 0.697294 0.567772 0.494993 0.515468 0.600756 0.697956 0.914434 0.751758 0.655087 0.673208 0.780048 0.915268 1.06831 0.885343 0.774746 0.78495 0.902889 1.0689 1.15412 0.961504 0.842872 0.840779 0.962113 1.15562 0.126056 0.0877106 0.0656274 0.0671884 0.087406 0.113631 0.377334 0.265482 0.193611 0.197453 0.265619 0.349118 0.600132 0.426349 0.310362 0.316408 0.427008 0.569033 0.77919 0.558552 0.408796 0.414707 0.559276 0.753332 0.902333 0.651876 0.481297 0.485243 0.652722 0.886492 0.962465 0.700741 0.52152 0.521284 0.700945 0.963217 0.113285 0.0672483 0.029617 0.0295559 0.0656345 0.10557 0.323808 0.197998 0.0876081 0.0875414 0.193693 0.306623 0.514983 0.316762 0.140045 0.140217 0.310952 0.494011 0.672511 0.414753 0.183795 0.18423 0.409597 0.654688 0.784362 0.48502 0.21575 0.216249 0.48222 0.774564 0.840571 0.52105 0.23297 0.23317 0.521473 0.841335 0.105878 0.0660388 0.0300922 0.0301041 0.0674616 0.113069 0.308195 0.194859 0.0886432 0.0884628 0.197908 0.322485 0.495398 0.311757 0.141872 0.141572 0.317157 0.514278 0.655544 0.410243 0.185739 0.185675 0.415638 0.672567 0.775194 0.482536 0.217205 0.21718 0.485844 0.784585 0.842275 0.521917 0.233657 0.233481 0.521371 0.83976 0.114749 0.0886677 0.0680053 0.0661331 0.0876024 0.124841 0.349746 0.266971 0.199049 0.194979 0.266238 0.376539 0.569389 0.428216 0.318336 0.312379 0.427782 0.600924 0.75392 0.560476 0.416452 0.411176 0.560621 0.780472 0.887805 0.653618 0.486143 0.483192 0.653537 0.903591 0.961022 0.701405 0.521737 0.52217 0.701717 0.963301 0.14121 0.126793 0.114261 0.106845 0.114781 0.14024 0.432361 0.378289 0.325055 0.309043 0.350043 0.432496 0.69838 0.60155 0.516919 0.497058 0.569831 0.698921 0.915582 0.780377 0.674216 0.657638 0.754522 0.916359 1.06905 0.903167 0.785469 0.776807 0.887904 1.06947 1.15445 0.963235 0.841012 0.843107 0.963374 1.15795 7.45058e-09 0.132362 0.135778 0.070502 0.0643468 0.204992 0.294837 0.172409 0.234831 0.113719 1.666e-08 0.13322 0.195012 0.0615115 0.0693784 0.166347 0.272224 0.229982 1.666e-08 0.125222 0.255569 7.45058e-09 1.05367e-08 0.336672 0.175148 0.287215 0 0.127613 0.126386 0.062042 0.0584291 0.178609 0.256089 0.188647 0.0916383 1.49012e-08 0.101351 0.155065 0.0513773 0.0559687 0.205469 0.172657 7.45058e-09 0.107962 0.217258 7.45058e-09 0.232024 0 0.131821 0.128488 0.0586284 0.05893 0.174062 0.249034 0.173986 0.0851942 1.49012e-08 0.0856913 0.142041 0.048307 0.0491434 0.169298 0.145291 7.45058e-09 0.107609 0.211098 7.45058e-09 0.209386 0 0.147463 0.138456 0.0634007 0.0643258 0.189597 0.266735 0.180986 0.0956791 1.49012e-08 0.0894886 0.155832 0.0525924 0.0506418 0.17509 0.145987 7.45058e-09 0.118391 0.235422 7.45058e-09 0.220769 0 0.168202 0.154027 0.0670166 0.0670754 0.213838 0.300508 0.202895 0.114211 1.49012e-08 0.104668 0.180277 0.0580906 0.0557045 0.212815 0.166798 7.45058e-09 0.132437 0.271344 7.45058e-09 0.252919 0 0.172733 0.174758 0.0685621 0.073157 0.233308 0.334526 0.228999 0.126364 1.49012e-08 0.125364 0.203934 0.0629427 0.0615676 0.255276 0.194441 7.45058e-09 0.137255 0.291914 7.45058e-09 0.28654 0.412836 0.44872 0.392409 0.346996 0.48881 0.602063 0.507719 0.546007 0.352586 0.407013 0.455695 0.32839 0.37841 0.472631 0.533022 0.521145 0.384977 0.509709 0.644044 0.495407 0.569996 0.373947 0.388769 0.318515 0.29721 0.414893 0.517789 0.447123 0.27229 0.307849 0.36052 0.260197 0.291566 0.404758 0.403987 0.321957 0.4256 0.461127 0.374039 0.369847 0.285106 0.283112 0.388528 0.48362 0.395261 0.245377 0.250655 0.31887 0.232298 0.241304 0.328265 0.331308 0.308125 0.403937 0.404509 0.416112 0.391373 0.292025 0.309628 0.42313 0.509422 0.400205 0.284297 0.259399 0.349935 0.254227 0.23873 0.338973 0.325783 0.347828 0.454976 0.422547 0.472858 0.443429 0.33216 0.355967 0.487659 0.576899 0.45556 0.353089 0.317827 0.420699 0.302705 0.277465 0.417423 0.382178 0.406654 0.533649 0.492788 0.50731 0.496176 0.378202 0.392335 0.544818 0.644593 0.520649 0.412628 0.385675 0.489074 0.347312 0.328625 0.510202 0.455783 0.448104 0.601576 0.569816 0.68412 0.740298 0.690172 0.622573 0.746611 0.871534 0.817643 0.823094 0.566897 0.649574 0.687521 0.577144 0.654028 0.741225 0.754351 0.775809 0.626705 0.733768 0.906076 0.782066 0.813668 0.610681 0.640892 0.570197 0.528076 0.634199 0.754036 0.684905 0.438645 0.49621 0.547353 0.457603 0.512788 0.579315 0.611916 0.521965 0.612824 0.665285 0.598026 0.597394 0.500051 0.490687 0.586055 0.696655 0.600693 0.393296 0.402386 0.480724 0.402528 0.420349 0.469861 0.501288 0.492439 0.575677 0.580474 0.656841 0.622448 0.502985 0.532459 0.630783 0.722362 0.599113 0.454856 0.414401 0.523796 0.440057 0.411488 0.481408 0.488753 0.553312 0.642413 0.598983 0.742317 0.697937 0.571812 0.613531 0.724669 0.807668 0.675917 0.568468 0.509784 0.630212 0.52926 0.482897 0.592941 0.571776 0.649607 0.755283 0.695765 0.81879 0.783508 0.654278 0.691508 0.822987 0.906816 0.775117 0.684343 0.62812 0.747435 0.623505 0.578682 0.734261 0.687818 0.741775 0.871325 0.813439 0.910923 0.981447 0.941059 0.857189 0.952803 1.07985 1.07193 1.04338 0.742594 0.845887 0.871404 0.786768 0.883405 0.956853 0.922357 0.976366 0.826975 0.906903 1.10595 1.0151 1.00045 0.812292 0.853769 0.787644 0.730051 0.814048 0.940803 0.876953 0.578602 0.652805 0.699832 0.628782 0.702228 0.715195 0.779018 0.691965 0.762034 0.825492 0.78674 0.790952 0.689355 0.672749 0.749749 0.867176 0.770301 0.517725 0.531214 0.614479 0.551232 0.576776 0.583484 0.641833 0.648256 0.711949 0.721887 0.850829 0.812439 0.68419 0.719965 0.795136 0.886041 0.760063 0.593695 0.542059 0.660903 0.596332 0.559507 0.59219 0.620809 0.719768 0.783809 0.735192 0.95789 0.901259 0.7694 0.825536 0.909092 0.980022 0.847466 0.744822 0.665118 0.794148 0.717469 0.652652 0.725617 0.719867 0.846236 0.923298 0.848081 1.07363 1.01623 0.883872 0.942729 1.04351 1.10624 0.975422 0.911931 0.828835 0.954279 0.858322 0.788247 0.907472 0.871667 0.983654 1.08029 1.00021 1.07521 1.15416 1.12688 1.03185 1.09357 1.21641 1.25232 1.19221 0.866281 0.982673 0.995421 0.941263 1.05163 1.10584 1.02693 1.11043 0.970343 1.02019 1.23358 1.17955 1.1206 0.960433 1.01011 0.950767 0.884311 0.94096 1.06538 1.01057 0.681392 0.765212 0.806888 0.759173 0.843197 0.802976 0.893585 0.817567 0.862336 0.932696 0.922854 0.933145 0.836057 0.813638 0.865832 0.979589 0.892293 0.609789 0.626888 0.70916 0.666317 0.69732 0.659934 0.742017 0.762831 0.801608 0.817519 0.982717 0.945475 0.82131 0.857109 0.902907 0.98568 0.870896 0.69104 0.632977 0.750725 0.710884 0.671272 0.662707 0.711953 0.834539 0.869183 0.82022 1.1068 1.04052 0.91144 0.978626 1.02951 1.08347 0.95809 0.869033 0.77225 0.900959 0.854039 0.774922 0.806981 0.816221 0.983441 1.02779 0.940233 1.25457 1.17972 1.05178 1.12822 1.19297 1.23308 1.10891 1.07623 0.971439 1.0951 1.03291 0.942724 1.02014 0.995329 1.15676 1.21772 1.12037 1.16892 1.25565 1.23944 1.13761 1.17025 1.30171 1.36255 1.28075 0.931566 1.0549 1.05565 1.03295 1.14983 1.1887 1.06719 1.17503 1.04802 1.06719 1.30171 1.27247 1.17851 1.04196 1.09542 1.05203 0.980984 1.00217 1.11803 1.08146 0.738653 0.82574 0.858662 0.839729 0.927613 0.833333 0.946954 0.888346 0.897527 0.971825 0.99573 1.00779 0.930373 0.900944 0.918993 1.01379 0.949476 0.65959 0.68006 0.75284 0.7375 0.773647 0.687184 0.789512 0.825373 0.833333 0.849837 1.0491 1.01364 0.901711 0.932984 0.948577 1.01379 0.91748 0.738508 0.678938 0.787851 0.774801 0.737661 0.687184 0.752287 0.891095 0.897528 0.849837 1.18603 1.11412 0.988174 1.06444 1.08297 1.11803 1.00259 0.932892 0.824423 0.947338 0.931084 0.842024 0.833333 0.855542 1.05552 1.06719 0.971825 1.36044 1.27542 1.14968 1.23988 1.28261 1.30171 1.17516 1.16668 1.0523 1.17426 1.13853 1.03272 1.06719 1.05473 1.25627 1.30171 1.17851 0.0678516 0.0584975 0.181636 0.217133 0.0963404 7.45058e-09 0.11987 0.16782 0.0562059 0.0669346 0.14674 0.235473 0.203797 1.49012e-08 0.105059 0.213728 0 7.45058e-09 0.302688 0.156136 0.253117 0.0505599 0.0438912 0.1325 0.154049 0.0595878 0 0.0766535 0.110522 0.036863 0.0455255 0.15343 0.136997 0 0.0744388 0.150233 0 0.177788 0.0395526 0.0371756 0.110112 0.117687 0.0420252 0 0.0467237 0.0795076 0.0264981 0.0307413 0.0933193 0.0907909 0 0.0630562 0.125182 0 0.131031 0.0380641 0.0407269 0.121401 0.112381 0.0591391 0 0.0469039 0.0923117 0.0306725 0.0275113 0.0940151 0.0803131 0 0.075777 0.152805 0 0.133564 0.0450331 0.0499675 0.15318 0.136214 0.0913024 0 0.0744177 0.132724 0.0437632 0.0370683 0.149957 0.110374 0 0.101432 0.205403 0 0.177893 0.0542411 0.0668884 0.187761 0.171372 0.126503 0 0.109736 0.177223 0.0604316 0.0519155 0.215644 0.153777 0 0.126755 0.256552 0 0.231909 0.357216 0.302724 0.419058 0.489098 0.28554 0.348672 0.383016 0.277358 0.333186 0.416411 0.4546 0.456128 0.317596 0.417335 0.576318 0.445446 0.492985 0.259415 0.221763 0.306821 0.358868 0.176748 0.227563 0.255731 0.185059 0.229271 0.298637 0.315686 0.22237 0.292521 0.348818 0.195154 0.181518 0.249386 0.268945 0.123483 0.138105 0.180855 0.131471 0.151599 0.181044 0.208175 0.184356 0.242017 0.253859 0.184161 0.201494 0.277417 0.253471 0.176383 0.139178 0.211284 0.153026 0.133313 0.182837 0.182685 0.226905 0.298555 0.259252 0.227923 0.259353 0.35809 0.315401 0.272782 0.222643 0.308491 0.22218 0.185671 0.292905 0.255719 0.306839 0.405698 0.349565 0.29108 0.320232 0.44731 0.40448 0.373308 0.322645 0.415496 0.297816 0.260974 0.424745 0.359969 0.389455 0.519087 0.462165 0.613469 0.52864 0.628093 0.724788 0.455512 0.553708 0.572107 0.482216 0.571902 0.656666 0.641906 0.676134 0.50875 0.59204 0.805955 0.698157 0.695438 0.453182 0.388316 0.462838 0.539505 0.282829 0.363963 0.384369 0.323133 0.398634 0.423826 0.473182 0.357171 0.417109 0.496711 0.339882 0.315152 0.375491 0.405198 0.197768 0.220922 0.27199 0.228403 0.263248 0.257548 0.312758 0.295442 0.345088 0.362255 0.319773 0.350344 0.415979 0.380546 0.282872 0.223098 0.317413 0.266691 0.231298 0.260243 0.274501 0.363974 0.424462 0.368744 0.397779 0.454275 0.539705 0.473079 0.439707 0.358016 0.464998 0.389484 0.324082 0.41813 0.38487 0.49617 0.58074 0.497927 0.513124 0.572285 0.685993 0.612521 0.610609 0.523571 0.635966 0.529624 0.459275 0.612518 0.547192 0.643009 0.755832 0.666292 0.824712 0.716456 0.791869 0.908709 0.593636 0.719472 0.71992 0.651778 0.768844 0.850116 0.78366 0.847654 0.66376 0.724397 0.978353 0.900629 0.847825 0.616945 0.530626 0.58892 0.682976 0.370452 0.47577 0.487287 0.439825 0.540454 0.519967 0.597505 0.469604 0.514782 0.610621 0.46507 0.430993 0.479249 0.516936 0.25997 0.29017 0.346658 0.311913 0.35868 0.318076 0.397889 0.388864 0.426805 0.448574 0.435794 0.475743 0.52627 0.483501 0.371008 0.292776 0.402282 0.362946 0.315028 0.320515 0.348949 0.476421 0.521052 0.453842 0.540162 0.618454 0.683823 0.597546 0.579717 0.470614 0.590674 0.531959 0.441206 0.51599 0.488073 0.653352 0.716809 0.611836 0.703234 0.789903 0.878903 0.779709 0.812792 0.69373 0.816255 0.731694 0.630777 0.762179 0.699793 0.856314 0.943078 0.826647 0.977546 0.852996 0.899466 1.02823 0.689881 0.83359 0.815888 0.774484 0.910818 0.982128 0.869139 0.958079 0.771347 0.806007 1.08283 1.03893 0.939269 0.737374 0.637713 0.675551 0.778986 0.433312 0.554654 0.556661 0.526723 0.644167 0.580083 0.679737 0.551125 0.578445 0.682238 0.561 0.520511 0.552723 0.59559 0.305488 0.340764 0.398914 0.375977 0.431066 0.357774 0.456981 0.457621 0.480828 0.506006 0.523871 0.568723 0.600306 0.554726 0.434132 0.342822 0.459399 0.434625 0.378322 0.358811 0.400271 0.555722 0.581049 0.507846 0.644352 0.739269 0.780079 0.679902 0.682409 0.551927 0.676669 0.63894 0.527994 0.579136 0.55745 0.766265 0.803669 0.683309 0.844631 0.953141 1.01133 0.893535 0.960201 0.818194 0.942267 0.885579 0.760664 0.863392 0.806627 1.01184 1.0676 0.932476 1.0646 0.930861 0.947716 1.08028 0.737811 0.889704 0.85534 0.842545 0.988449 1.0506 0.897528 1.00438 0.825684 0.833333 1.11803 1.11216 0.971825 0.807111 0.702255 0.715591 0.822542 0.466575 0.594865 0.588347 0.577309 0.702573 0.600925 0.715388 0.595799 0.600925 0.707107 0.620377 0.575626 0.587204 0.632904 0.329886 0.368301 0.42342 0.415034 0.474944 0.372678 0.484978 0.494654 0.5 0.527046 0.575602 0.621298 0.6323 0.586649 0.467046 0.368965 0.484431 0.475748 0.415415 0.372678 0.423437 0.595474 0.600925 0.527046 0.702665 0.808736 0.823188 0.714785 0.739287 0.595996 0.715781 0.702969 0.577821 0.600925 0.588145 0.82683 0.833333 0.707107 0.930084 1.0527 1.08348 0.947674 1.03835 0.891717 1.0055 0.981178 0.840777 0.897528 0.857457 1.0956 1.11803 0.971825 0.0644685 0.0525408 0.155473 0.191761 0.0856858 7.45058e-09 0.108386 0.146402 0.0501493 0.0628506 0.13235 0.211215 0.181159 1.49012e-08 0.0893778 0.177119 0 7.45058e-09 0.267626 0.138614 0.220601 0.040916 0.0309727 0.0923954 0.122685 0.042215 0 0.0636581 0.0803585 0.0271866 0.0382683 0.126553 0.113137 0 0.0471265 0.0944375 0 0.134343 0.0223557 0.0164283 0.0492759 0.0666921 0.00276587 0 0.0212498 0.0221474 0.00744413 0.0168227 0.0422963 0.0498589 0 0.0207084 0.0416776 0 0.059344 0.0167741 0.0222918 0.0661811 0.0497508 0.0415618 0 0.021058 0.0494931 0.0163751 0.00780752 0.0418684 0.0220538 0 0.0462933 0.0931506 0 0.0590075 0.0303542 0.0397014 0.117241 0.0907557 0.0843822 0 0.0635407 0.110752 0.0371902 0.0272758 0.125351 0.0792207 0 0.0856161 0.169935 0 0.13086 0.0478475 0.0645342 0.172747 0.144769 0.133118 0 0.108037 0.174013 0.0616162 0.0485056 0.20878 0.139646 0 0.128945 0.25027 0 0.208871 0.310641 0.254218 0.34934 0.424795 0.247606 0.308829 0.326824 0.238089 0.293734 0.374823 0.40379 0.401407 0.259845 0.340743 0.510794 0.39297 0.422401 0.202456 0.153344 0.211112 0.278446 0.124193 0.185881 0.183123 0.13331 0.186058 0.243233 0.254821 0.139395 0.183083 0.259905 0.110716 0.0818005 0.112575 0.152494 0.00504187 0.0623311 0.0503362 0.0367523 0.0826489 0.0815973 0.113639 0.0613447 0.0806975 0.114973 0.082278 0.110508 0.152178 0.113214 0.123466 0.0619993 0.11304 0.0817657 0.0369801 0.0813098 0.0503373 0.137679 0.181041 0.114786 0.15108 0.195215 0.268627 0.208255 0.246635 0.185186 0.250696 0.18199 0.132104 0.242768 0.180963 0.249225 0.328941 0.254204 0.239675 0.287706 0.39538 0.33093 0.372892 0.30771 0.388959 0.283806 0.231592 0.402282 0.316808 0.370949 0.486064 0.403819 0.533059 0.439924 0.522185 0.631316 0.394776 0.492493 0.489455 0.411691 0.504353 0.598869 0.575262 0.599826 0.414735 0.483106 0.722281 0.623101 0.598592 0.350875 0.266705 0.316769 0.41647 0.198463 0.296687 0.275014 0.231482 0.321343 0.346202 0.381947 0.223175 0.26005 0.369031 0.192418 0.142014 0.168988 0.228615 0.00262022 0.0993548 0.0752674 0.0635243 0.143168 0.11576 0.170332 0.098234 0.11488 0.163273 0.142839 0.192422 0.228923 0.170003 0.19811 0.0992714 0.16976 0.142448 0.0638261 0.115874 0.0754615 0.22103 0.258213 0.163592 0.263243 0.340526 0.405401 0.313412 0.394832 0.296661 0.377106 0.316087 0.229418 0.346197 0.272535 0.401394 0.470653 0.363149 0.419313 0.503703 0.600992 0.501032 0.598375 0.492805 0.586403 0.492221 0.402419 0.574961 0.478376 0.598958 0.699322 0.579481 0.71963 0.595865 0.658918 0.794359 0.518719 0.647693 0.621005 0.560223 0.684864 0.787342 0.711356 0.760178 0.542327 0.593375 0.884964 0.812065 0.734703 0.475998 0.362512 0.401365 0.526332 0.260397 0.389645 0.349162 0.315169 0.436954 0.427427 0.484623 0.292519 0.320194 0.453879 0.261872 0.19357 0.215038 0.29014 0.00257898 0.130147 0.0958284 0.0864131 0.19478 0.142614 0.216267 0.129284 0.14215 0.20141 0.194726 0.262369 0.290967 0.216171 0.260575 0.130604 0.215933 0.194418 0.0869861 0.143157 0.0962419 0.290809 0.319067 0.202022 0.359372 0.466089 0.517425 0.398779 0.519328 0.390124 0.480585 0.432134 0.313298 0.427793 0.347338 0.530818 0.583734 0.449558 0.576917 0.693428 0.7708 0.641696 0.787726 0.648587 0.749655 0.674695 0.551629 0.712305 0.612283 0.792432 0.869648 0.720923 0.85626 0.7104 0.749344 0.901344 0.610036 0.762232 0.711487 0.67249 0.821414 0.923811 0.801873 0.870519 0.633422 0.663142 0.98533 0.943965 0.819655 0.568638 0.434075 0.45863 0.599805 0.305558 0.457799 0.40031 0.378545 0.524434 0.480796 0.555416 0.342606 0.358749 0.507627 0.314358 0.233103 0.24715 0.332356 0.00501815 0.152675 0.11039 0.104277 0.233981 0.160145 0.248068 0.152287 0.160002 0.226217 0.234203 0.31499 0.33315 0.247948 0.306001 0.15323 0.247887 0.233934 0.104895 0.160661 0.110733 0.341609 0.358599 0.226697 0.432094 0.562147 0.59622 0.457806 0.610998 0.458382 0.553757 0.521365 0.377326 0.481278 0.39955 0.627091 0.659988 0.506668 0.698077 0.83939 0.89131 0.741839 0.923424 0.762834 0.865087 0.815226 0.666712 0.802233 0.707707 0.933654 0.980611 0.815968 0.933346 0.775443 0.788109 0.946263 0.659463 0.824379 0.751209 0.739012 0.902145 0.994704 0.833333 0.919488 0.68039 0.687184 1.01379 1.01316 0.849837 0.620928 0.475574 0.484217 0.631743 0.32963 0.49445 0.423507 0.415853 0.575927 0.5 0.587372 0.369108 0.372678 0.527046 0.34543 0.257001 0.26238 0.351988 0.00267435 0.16466 0.117415 0.115085 0.257188 0.166667 0.262777 0.164671 0.166666 0.235702 0.257444 0.345602 0.35246 0.262625 0.329926 0.165129 0.262482 0.25738 0.115364 0.166667 0.11746 0.368694 0.372678 0.235702 0.475635 0.620739 0.633116 0.484861 0.659594 0.494601 0.587107 0.575452 0.415794 0.5 0.423535 0.680009 0.687184 0.527046 0.7