# vtk DataFile Version 5.1
vtk output
ASCII
DATASET UNSTRUCTURED_GRID
POINTS 3925 float
0 0 0 1 0 0 2 0 0 
3 0 0 4 0 0 5 0 0 
6 0 0 7 0 0 8 0 0 
9 0 0 10 0 0 11 0 0 
12 0 0 0 1 0 1 1 0 
2 1 0 3 1 0 4 1 0 
5 1 0 6 1 0 7 1 0 
8 1 0 9 1 0 10 1 0 
11 1 0 12 1 0 0 2 0 
1 2 0 2 2 0 3 2 0 
4 2 0 5 2 0 6 2 0 
7 2 0 8 2 0 9 2 0 
10 2 0 11 2 0 12 2 0 
0 3 0 1 3 0 2 3 0 
3 3 0 4 3 0 5 3 0 
6 3 0 7 3 0 8 3 0 
9 3 0 10 3 0 11 3 0 
12 3 0 0 4 0 1 4 0 
2 4 0 3 4 0 4 4 0 
5 4 0 6 4 0 7 4 0 
8 4 0 9 4 0 10 4 0 
11 4 0 12 4 0 0 5 0 
1 5 0 2 5 0 3 5 0 
4 5 0 5 5 0 6 5 0 
7 5 0 8 5 0 9 5 0 
10 5 0 11 5 0 12 5 0 
0 6 0 1 6 0 2 6 0 
3 6 0 4 6 0 5 6 0 
6 6 0 7 6 0 8 6 0 
9 6 0 10 6 0 11 6 0 
12 6 0 0 7 0 1 7 0 
2 7 0 3 7 0 4 7 0 
5 7 0 6 7 0 7 7 0 
8 7 0 9 7 0 10 7 0 
11 7 0 12 7 0 0 8 0 
1 8 0 2 8 0 3 8 0 
4 8 0 5 8 0 6 8 0 
7 8 0 8 8 0 9 8 0 
10 8 0 11 8 0 12 8 0 
0 9 0 1 9 0 2 9 0 
3 9 0 4 9 0 5 9 0 
6 9 0 7 9 0 8 9 0 
9 9 0 10 9 0 11 9 0 
12 9 0 0 10 0 1 10 0 
2 10 0 3 10 0 4 10 0 
5 10 0 6 10 0 7 10 0 
8 10 0 9 10 0 10 10 0 
11 10 0 12 10 0 0 11 0 
1 11 0 2 11 0 3 11 0 
4 11 0 5 11 0 6 11 0 
7 11 0 8 11 0 9 11 0 
10 11 0 11 11 0 12 11 0 
0 12 0 1 12 0 2 12 0 
3 12 0 4 12 0 5 12 0 
6 12 0 7 12 0 8 12 0 
9 12 0 10 12 0 11 12 0 
12 12 0 0 0 1 1 0 1 
2 0 1 3 0 1 4 0 1 
5 0 1 6 0 1 7 0 1 
8 0 1 9 0 1 10 0 1 
11 0 1 12 0 1 0 1 1 
1 1 1 2 1 1 3 1 1 
4 1 1 5 1 1 6 1 1 
7 1 1 8 1 1 9 1 1 
10 1 1 11 1 1 12 1 1 
0 2 1 1 2 1 2 2 1 
3 2 1 4 2 1 5 2 1 
6 2 1 7 2 1 8 2 1 
9 2 1 10 2 1 11 2 1 
12 2 1 0 3 1 1 3 1 
2 3 1 3 3 1 4 3 1 
5 3 1 6 3 1 7 3 1 
8 3 1 9 3 1 10 3 1 
11 3 1 12 3 1 0 4 1 
1 4 1 2 4 1 3 4 1 
4 4 1 5 4 1 6 4 1 
7 4 1 8 4 1 9 4 1 
10 4 1 11 4 1 12 4 1 
0 5 1 1 5 1 2 5 1 
3 5 1 4 5 1 5 5 1 
6 5 1 7 5 1 8 5 1 
9 5 1 10 5 1 11 5 1 
12 5 1 0 6 1 1 6 1 
2 6 1 3 6 1 4 6 1 
5 6 1 6 6 1 7 6 1 
8 6 1 9 6 1 10 6 1 
11 6 1 12 6 1 0 7 1 
1 7 1 2 7 1 3 7 1 
4 7 1 5 7 1 6 7 1 
7 7 1 8 7 1 9 7 1 
10 7 1 11 7 1 12 7 1 
0 8 1 1 8 1 2 8 1 
3 8 1 4 8 1 5 8 1 
6 8 1 7 8 1 8 8 1 
9 8 1 10 8 1 11 8 1 
12 8 1 0 9 1 1 9 1 
2 9 1 3 9 1 4 9 1 
5 9 1 6 9 1 7 9 1 
8 9 1 9 9 1 10 9 1 
11 9 1 12 9 1 0 10 1 
1 10 1 2 10 1 3 10 1 
4 10 1 5 10 1 6 10 1 
7 10 1 8 10 1 9 10 1 
10 10 1 11 10 1 12 10 1 
0 11 1 1 11 1 2 11 1 
3 11 1 4 11 1 5 11 1 
6 11 1 7 11 1 8 11 1 
9 11 1 10 11 1 11 11 1 
12 11 1 0 12 1 1 12 1 
2 12 1 3 12 1 4 12 1 
5 12 1 6 12 1 7 12 1 
8 12 1 9 12 1 10 12 1 
11 12 1 12 12 1 0 0 2 
1 0 2 2 0 2 3 0 2 
4 0 2 5 0 2 6 0 2 
7 0 2 8 0 2 9 0 2 
10 0 2 11 0 2 12 0 2 
0 1 2 1 1 2 2 1 2 
3 1 2 4 1 2 5 1 2 
6 1 2 7 1 2 8 1 2 
9 1 2 10 1 2 11 1 2 
12 1 2 0 2 2 1 2 2 
2 2 2 3 2 2 4 2 2 
5 2 2 6 2 2 7 2 2 
8 2 2 9 2 2 10 2 2 
11 2 2 12 2 2 0 3 2 
1 3 2 2 3 2 3 3 2 
4 3 2 5 3 2 6 3 2 
7 3 2 8 3 2 9 3 2 
10 3 2 11 3 2 12 3 2 
0 4 2 1 4 2 2 4 2 
3 4 2 4 4 2 5 4 2 
6 4 2 7 4 2 8 4 2 
9 4 2 10 4 2 11 4 2 
12 4 2 0 5 2 1 5 2 
2 5 2 3 5 2 4 5 2 
5 5 2 6 5 2 7 5 2 
8 5 2 9 5 2 10 5 2 
11 5 2 12 5 2 0 6 2 
1 6 2 2 6 2 3 6 2 
4 6 2 5 6 2 6 6 2 
7 6 2 8 6 2 9 6 2 
10 6 2 11 6 2 12 6 2 
0 7 2 1 7 2 2 7 2 
3 7 2 4 7 2 5 7 2 
6 7 2 7 7 2 8 7 2 
9 7 2 10 7 2 11 7 2 
12 7 2 0 8 2 1 8 2 
2 8 2 3 8 2 4 8 2 
5 8 2 6 8 2 7 8 2 
8 8 2 9 8 2 10 8 2 
11 8 2 12 8 2 0 9 2 
1 9 2 2 9 2 3 9 2 
4 9 2 5 9 2 6 9 2 
7 9 2 8 9 2 9 9 2 
10 9 2 11 9 2 12 9 2 
0 10 2 1 10 2 2 10 2 
3 10 2 4 10 2 5 10 2 
6 10 2 7 10 2 8 10 2 
9 10 2 10 10 2 11 10 2 
12 10 2 0 11 2 1 11 2 
2 11 2 3 11 2 4 11 2 
5 11 2 6 11 2 7 11 2 
8 11 2 9 11 2 10 11 2 
11 11 2 12 11 2 0 12 2 
1 12 2 2 12 2 3 12 2 
4 12 2 5 12 2 6 12 2 
7 12 2 8 12 2 9 12 2 
10 12 2 11 12 2 12 12 2 
0 0 3 1 0 3 2 0 3 
3 0 3 4 0 3 5 0 3 
6 0 3 7 0 3 8 0 3 
9 0 3 10 0 3 11 0 3 
12 0 3 0 1 3 1 1 3 
2 1 3 3 1 3 4 1 3 
5 1 3 6 1 3 7 1 3 
8 1 3 9 1 3 10 1 3 
11 1 3 12 1 3 0 2 3 
1 2 3 2 2 3 3 2 3 
4 2 3 5 2 3 6 2 3 
7 2 3 8 2 3 9 2 3 
10 2 3 11 2 3 12 2 3 
0 3 3 1 3 3 2 3 3 
3 3 3 4 3 3 5 3 3 
6 3 3 7 3 3 8 3 3 
9 3 3 10 3 3 11 3 3 
12 3 3 0 4 3 1 4 3 
2 4 3 3 4 3 4 4 3 
5 4 3 6 4 3 7 4 3 
8 4 3 9 4 3 10 4 3 
11 4 3 12 4 3 0 5 3 
1 5 3 2 5 3 3 5 3 
4 5 3 5 5 3 6 5 3 
7 5 3 8 5 3 9 5 3 
10 5 3 11 5 3 12 5 3 
0 6 3 1 6 3 2 6 3 
3 6 3 4 6 3 5 6 3 
6 6 3 7 6 3 8 6 3 
9 6 3 10 6 3 11 6 3 
12 6 3 0 7 3 1 7 3 
2 7 3 3 7 3 4 7 3 
5 7 3 6 7 3 7 7 3 
8 7 3 9 7 3 10 7 3 
11 7 3 12 7 3 0 8 3 
1 8 3 2 8 3 3 8 3 
4 8 3 5 8 3 6 8 3 
7 8 3 8 8 3 9 8 3 
10 8 3 11 8 3 12 8 3 
0 9 3 1 9 3 2 9 3 
3 9 3 4 9 3 5 9 3 
6 9 3 7 9 3 8 9 3 
9 9 3 10 9 3 11 9 3 
12 9 3 0 10 3 1 10 3 
2 10 3 3 10 3 4 10 3 
5 10 3 6 10 3 7 10 3 
8 10 3 9 10 3 10 10 3 
11 10 3 12 10 3 0 11 3 
1 11 3 2 11 3 3 11 3 
4 11 3 5 11 3 6 11 3 
7 11 3 8 11 3 9 11 3 
10 11 3 11 11 3 12 11 3 
0 12 3 1 12 3 2 12 3 
3 12 3 4 12 3 5 12 3 
6 12 3 7 12 3 8 12 3 
9 12 3 10 12 3 11 12 3 
12 12 3 0 0 4 1 0 4 
2 0 4 3 0 4 4 0 4 
5 0 4 6 0 4 7 0 4 
8 0 4 9 0 4 10 0 4 
11 0 4 12 0 4 0 1 4 
1 1 4 2 1 4 3 1 4 
4 1 4 5 1 4 6 1 4 
7 1 4 8 1 4 9 1 4 
10 1 4 11 1 4 12 1 4 
0 2 4 1 2 4 2 2 4 
3 2 4 4 2 4 5 2 4 
6 2 4 7 2 4 8 2 4 
9 2 4 10 2 4 11 2 4 
12 2 4 0 3 4 1 3 4 
2 3 4 3 3 4 4 3 4 
5 3 4 6 3 4 7 3 4 
8 3 4 9 3 4 10 3 4 
11 3 4 12 3 4 0 4 4 
1 4 4 2 4 4 3 4 4 
4 4 4 5 4 4 6 4 4 
7 4 4 8 4 4 9 4 4 
10 4 4 11 4 4 12 4 4 
0 5 4 1 5 4 2 5 4 
3 5 4 4 5 4 5 5 4 
6 5 4 7 5 4 8 5 4 
9 5 4 10 5 4 11 5 4 
12 5 4 0 6 4 1 6 4 
2 6 4 3 6 4 4 6 4 
5 6 4 6 6 4 7 6 4 
8 6 4 9 6 4 10 6 4 
11 6 4 12 6 4 0 7 4 
1 7 4 2 7 4 3 7 4 
4 7 4 5 7 4 6 7 4 
7 7 4 8 7 4 9 7 4 
10 7 4 11 7 4 12 7 4 
0 8 4 1 8 4 2 8 4 
3 8 4 4 8 4 5 8 4 
6 8 4 7 8 4 8 8 4 
9 8 4 10 8 4 11 8 4 
12 8 4 0 9 4 1 9 4 
2 9 4 3 9 4 4 9 4 
5 9 4 6 9 4 7 9 4 
8 9 4 9 9 4 10 9 4 
11 9 4 12 9 4 0 10 4 
1 10 4 2 10 4 3 10 4 
4 10 4 5 10 4 6 10 4 
7 10 4 8 10 4 9 10 4 
10 10 4 11 10 4 12 10 4 
0 11 4 1 11 4 2 11 4 
3 11 4 4 11 4 5 11 4 
6 11 4 7 11 4 8 11 4 
9 11 4 10 11 4 11 11 4 
12 11 4 0 12 4 1 12 4 
2 12 4 3 12 4 4 12 4 
5 12 4 6 12 4 7 12 4 
8 12 4 9 12 4 10 12 4 
11 12 4 12 12 4 0 0 5 
1 0 5 2 0 5 3 0 5 
4 0 5 5 0 5 6 0 5 
7 0 5 8 0 5 9 0 5 
10 0 5 11 0 5 12 0 5 
0 1 5 1 1 5 2 1 5 
3 1 5 4 1 5 5 1 5 
6 1 5 7 1 5 8 1 5 
9 1 5 10 1 5 11 1 5 
12 1 5 0 2 5 1 2 5 
2 2 5 3 2 5 4 2 5 
5 2 5 6 2 5 7 2 5 
8 2 5 9 2 5 10 2 5 
11 2 5 12 2 5 0 3 5 
1 3 5 2 3 5 3 3 5 
4 3 5 5 3 5 6 3 5 
7 3 5 8 3 5 9 3 5 
10 3 5 11 3 5 12 3 5 
0 4 5 1 4 5 2 4 5 
3 4 5 4 4 5 5 4 5 
6 4 5 7 4 5 8 4 5 
9 4 5 10 4 5 11 4 5 
12 4 5 0 5 5 1 5 5 
2 5 5 3 5 5 4 5 5 
5 5 5 6 5 5 7 5 5 
8 5 5 9 5 5 10 5 5 
11 5 5 12 5 5 0 6 5 
1 6 5 2 6 5 3 6 5 
4 6 5 5 6 5 6 6 5 
7 6 5 8 6 5 9 6 5 
10 6 5 11 6 5 12 6 5 
0 7 5 1 7 5 2 7 5 
3 7 5 4 7 5 5 7 5 
6 7 5 7 7 5 8 7 5 
9 7 5 10 7 5 11 7 5 
12 7 5 0 8 5 1 8 5 
2 8 5 3 8 5 4 8 5 
5 8 5 6 8 5 7 8 5 
8 8 5 9 8 5 10 8 5 
11 8 5 12 8 5 0 9 5 
1 9 5 2 9 5 3 9 5 
4 9 5 5 9 5 6 9 5 
7 9 5 8 9 5 9 9 5 
10 9 5 11 9 5 12 9 5 
0 10 5 1 10 5 2 10 5 
3 10 5 4 10 5 5 10 5 
6 10 5 7 10 5 8 10 5 
9 10 5 10 10 5 11 10 5 
12 10 5 0 11 5 1 11 5 
2 11 5 3 11 5 4 11 5 
5 11 5 6 11 5 7 11 5 
8 11 5 9 11 5 10 11 5 
11 11 5 12 11 5 0 12 5 
1 12 5 2 12 5 3 12 5 
4 12 5 5 12 5 6 12 5 
7 12 5 8 12 5 9 12 5 
10 12 5 11 12 5 12 12 5 
0 0 6 1 0 6 2 0 6 
3 0 6 4 0 6 5 0 6 
6 0 6 7 0 6 8 0 6 
9 0 6 10 0 6 11 0 6 
12 0 6 0 1 6 1 1 6 
2 1 6 3 1 6 4 1 6 
5 1 6 6 1 6 7 1 6 
8 1 6 9 1 6 10 1 6 
11 1 6 12 1 6 0 2 6 
1 2 6 2 2 6 3 2 6 
4 2 6 5 2 6 6 2 6 
7 2 6 8 2 6 9 2 6 
10 2 6 11 2 6 12 2 6 
0 3 6 1 3 6 2 3 6 
3 3 6 4 3 6 5 3 6 
6 3 6 7 3 6 8 3 6 
9 3 6 10 3 6 11 3 6 
12 3 6 0 4 6 1 4 6 
2 4 6 3 4 6 4 4 6 
5 4 6 6 4 6 7 4 6 
8 4 6 9 4 6 10 4 6 
11 4 6 12 4 6 0 5 6 
1 5 6 2 5 6 3 5 6 
4 5 6 5 5 6 6 5 6 
7 5 6 8 5 6 9 5 6 
10 5 6 11 5 6 12 5 6 
0 6 6 1 6 6 2 6 6 
3 6 6 4 6 6 5 6 6 
6 6 6 7 6 6 8 6 6 
9 6 6 10 6 6 11 6 6 
12 6 6 0 7 6 1 7 6 
2 7 6 3 7 6 4 7 6 
5 7 6 6 7 6 7 7 6 
8 7 6 9 7 6 10 7 6 
11 7 6 12 7 6 0 8 6 
1 8 6 2 8 6 3 8 6 
4 8 6 5 8 6 6 8 6 
7 8 6 8 8 6 9 8 6 
10 8 6 11 8 6 12 8 6 
0 9 6 1 9 6 2 9 6 
3 9 6 4 9 6 5 9 6 
6 9 6 7 9 6 8 9 6 
9 9 6 10 9 6 11 9 6 
12 9 6 0 10 6 1 10 6 
2 10 6 3 10 6 4 10 6 
5 10 6 6 10 6 7 10 6 
8 10 6 9 10 6 10 10 6 
11 10 6 12 10 6 0 11 6 
1 11 6 2 11 6 3 11 6 
4 11 6 5 11 6 6 11 6 
7 11 6 8 11 6 9 11 6 
10 11 6 11 11 6 12 11 6 
0 12 6 1 12 6 2 12 6 
3 12 6 4 12 6 5 12 6 
6 12 6 7 12 6 8 12 6 
9 12 6 10 12 6 11 12 6 
12 12 6 0 0 7 1 0 7 
2 0 7 3 0 7 4 0 7 
5 0 7 6 0 7 7 0 7 
8 0 7 9 0 7 10 0 7 
11 0 7 12 0 7 0 1 7 
1 1 7 2 1 7 3 1 7 
4 1 7 5 1 7 6 1 7 
7 1 7 8 1 7 9 1 7 
10 1 7 11 1 7 12 1 7 
0 2 7 1 2 7 2 2 7 
3 2 7 4 2 7 5 2 7 
6 2 7 7 2 7 8 2 7 
9 2 7 10 2 7 11 2 7 
12 2 7 0 3 7 1 3 7 
2 3 7 3 3 7 4 3 7 
5 3 7 6 3 7 7 3 7 
8 3 7 9 3 7 10 3 7 
11 3 7 12 3 7 0 4 7 
1 4 7 2 4 7 3 4 7 
4 4 7 5 4 7 6 4 7 
7 4 7 8 4 7 9 4 7 
10 4 7 11 4 7 12 4 7 
0 5 7 1 5 7 2 5 7 
3 5 7 4 5 7 5 5 7 
6 5 7 7 5 7 8 5 7 
9 5 7 10 5 7 11 5 7 
12 5 7 0 6 7 1 6 7 
2 6 7 3 6 7 4 6 7 
5 6 7 6 6 7 7 6 7 
8 6 7 9 6 7 10 6 7 
11 6 7 12 6 7 0 7 7 
1 7 7 2 7 7 3 7 7 
4 7 7 5 7 7 6 7 7 
7 7 7 8 7 7 9 7 7 
10 7 7 11 7 7 12 7 7 
0 8 7 1 8 7 2 8 7 
3 8 7 4 8 7 5 8 7 
6 8 7 7 8 7 8 8 7 
9 8 7 10 8 7 11 8 7 
12 8 7 0 9 7 1 9 7 
2 9 7 3 9 7 4 9 7 
5 9 7 6 9 7 7 9 7 
8 9 7 9 9 7 10 9 7 
11 9 7 12 9 7 0 10 7 
1 10 7 2 10 7 3 10 7 
4 10 7 5 10 7 6 10 7 
7 10 7 8 10 7 9 10 7 
10 10 7 11 10 7 12 10 7 
0 11 7 1 11 7 2 11 7 
3 11 7 4 11 7 5 11 7 
6 11 7 7 11 7 8 11 7 
9 11 7 10 11 7 11 11 7 
12 11 7 0 12 7 1 12 7 
2 12 7 3 12 7 4 12 7 
5 12 7 6 12 7 7 12 7 
8 12 7 9 12 7 10 12 7 
11 12 7 12 12 7 0 0 8 
1 0 8 2 0 8 3 0 8 
4 0 8 5 0 8 6 0 8 
7 0 8 8 0 8 9 0 8 
10 0 8 11 0 8 12 0 8 
0 1 8 1 1 8 2 1 8 
3 1 8 4 1 8 5 1 8 
6 1 8 7 1 8 8 1 8 
9 1 8 10 1 8 11 1 8 
12 1 8 0 2 8 1 2 8 
2 2 8 3 2 8 4 2 8 
5 2 8 6 2 8 7 2 8 
8 2 8 9 2 8 10 2 8 
11 2 8 12 2 8 0 3 8 
1 3 8 2 3 8 3 3 8 
4 3 8 5 3 8 6 3 8 
7 3 8 8 3 8 9 3 8 
10 3 8 11 3 8 12 3 8 
0 4 8 1 4 8 2 4 8 
3 4 8 4 4 8 5 4 8 
6 4 8 7 4 8 8 4 8 
9 4 8 10 4 8 11 4 8 
12 4 8 0 5 8 1 5 8 
2 5 8 3 5 8 4 5 8 
5 5 8 6 5 8 7 5 8 
8 5 8 9 5 8 10 5 8 
11 5 8 12 5 8 0 6 8 
1 6 8 2 6 8 3 6 8 
4 6 8 5 6 8 6 6 8 
7 6 8 8 6 8 9 6 8 
10 6 8 11 6 8 12 6 8 
0 7 8 1 7 8 2 7 8 
3 7 8 4 7 8 5 7 8 
6 7 8 7 7 8 8 7 8 
9 7 8 10 7 8 11 7 8 
12 7 8 0 8 8 1 8 8 
2 8 8 3 8 8 4 8 8 
[...]
POINT_DATA 3925
FIELD FieldData 2
DistanceToCenter 1 3925 float
10.3923 9.84886 9.38083 9 8.7178 8.544 8.48528 8.544 8.7178 
9 9.38083 9.84886 10.3923 9.84886 9.27362 8.77496 8.3666 8.06226 
7.87401 7.81025 7.87401 8.06226 8.3666 8.77496 9.27362 9.84886 9.38083 
8.77496 8.24621 7.81025 7.48331 7.28011 7.2111 7.28011 7.48331 7.81025 
8.24621 8.77496 9.38083 9 8.3666 7.81025 7.34847 7 6.78233 
6.7082 6.78233 7 7.34847 7.81025 8.3666 9 8.7178 8.06226 
7.48331 7 6.63325 6.40312 6.32456 6.40312 6.63325 7 7.48331 
8.06226 8.7178 8.544 7.87401 7.28011 6.78233 6.40312 6.16441 6.08276 
6.16441 6.40312 6.78233 7.28011 7.87401 8.544 8.48528 7.81025 7.2111 
6.7082 6.32456 6.08276 6 6.08276 6.32456 6.7082 7.2111 7.81025 
8.48528 8.544 7.87401 7.28011 6.78233 6.40312 6.16441 6.08276 6.16441 
6.40312 6.78233 7.28011 7.87401 8.544 8.7178 8.06226 7.48331 7 
6.63325 6.40312 6.32456 6.40312 6.63325 7 7.48331 8.06226 8.7178 
9 8.3666 7.81025 7.34847 7 6.78233 6.7082 6.78233 7 
7.34847 7.81025 8.3666 9 9.38083 8.77496 8.24621 7.81025 7.48331 
7.28011 7.2111 7.28011 7.48331 7.81025 8.24621 8.77496 9.38083 9.84886 
9.27362 8.77496 8.3666 8.06226 7.87401 7.81025 7.87401 8.06226 8.3666 
8.77496 9.27362 9.84886 10.3923 9.84886 9.38083 9 8.7178 8.544 
8.48528 8.544 8.7178 9 9.38083 9.84886 10.3923 9.84886 9.27362 
8.77496 8.3666 8.06226 7.87401 7.81025 7.87401 8.06226 8.3666 8.77496 
9.27362 9.84886 9.27362 8.66025 8.12404 7.68115 7.34847 7.14143 7.07107 
7.14143 7.34847 7.68115 8.12404 8.66025 9.27362 8.77496 8.12404 7.54983 
7.07107 6.7082 6.48074 6.40312 6.48074 6.7082 7.07107 7.54983 8.12404 
8.77496 8.3666 7.68115 7.07107 6.55744 6.16441 5.91608 5.83095 5.91608 
6.16441 6.55744 7.07107 7.68115 8.3666 8.06226 7.34847 6.7082 6.16441 
5.74456 5.47723 5.38516 5.47723 5.74456 6.16441 6.7082 7.34847 8.06226 
7.87401 7.14143 6.48074 5.91608 5.47723 5.19615 5.09902 5.19615 5.47723 
5.91608 6.48074 7.14143 7.87401 7.81025 7.07107 6.40312 5.83095 5.38516 
5.09902 5 5.09902 5.38516 5.83095 6.40312 7.07107 7.81025 7.87401 
7.14143 6.48074 5.91608 5.47723 5.19615 5.09902 5.19615 5.47723 5.91608 
6.48074 7.14143 7.87401 8.06226 7.34847 6.7082 6.16441 5.74456 5.47723 
5.38516 5.47723 5.74456 6.16441 6.7082 7.34847 8.06226 8.3666 7.68115 
7.07107 6.55744 6.16441 5.91608 5.83095 5.91608 6.16441 6.55744 7.07107 
7.68115 8.3666 8.77496 8.12404 7.54983 7.07107 6.7082 6.48074 6.40312 
6.48074 6.7082 7.07107 7.54983 8.12404 8.77496 9.27362 8.66025 8.12404 
7.68115 7.34847 7.14143 7.07107 7.14143 7.34847 7.68115 8.12404 8.66025 
9.27362 9.84886 9.27362 8.77496 8.3666 8.06226 7.87401 7.81025 7.87401 
8.06226 8.3666 8.77496 9.27362 9.84886 9.38083 8.77496 8.24621 7.81025 
7.48331 7.28011 7.2111 7.28011 7.48331 7.81025 8.24621 8.77496 9.38083 
8.77496 8.12404 7.54983 7.07107 6.7082 6.48074 6.40312 6.48074 6.7082 
7.07107 7.54983 8.12404 8.77496 8.24621 7.54983 6.9282 6.40312 6 
5.74456 5.65685 5.74456 6 6.40312 6.9282 7.54983 8.24621 7.81025 
7.07107 6.40312 5.83095 5.38516 5.09902 5 5.09902 5.38516 5.83095 
6.40312 7.07107 7.81025 7.48331 6.7082 6 5.38516 4.89898 4.58258 
4.47214 4.58258 4.89898 5.38516 6 6.7082 7.48331 7.28011 6.48074 
5.74456 5.09902 4.58258 4.24264 4.12311 4.24264 4.58258 5.09902 5.74456 
6.48074 7.28011 7.2111 6.40312 5.65685 5 4.47214 4.12311 4 
4.12311 4.47214 5 5.65685 6.40312 7.2111 7.28011 6.48074 5.74456 
5.09902 4.58258 4.24264 4.12311 4.24264 4.58258 5.09902 5.74456 6.48074 
7.28011 7.48331 6.7082 6 5.38516 4.89898 4.58258 4.47214 4.58258 
4.89898 5.38516 6 6.7082 7.48331 7.81025 7.07107 6.40312 5.83095 
5.38516 5.09902 5 5.09902 5.38516 5.83095 6.40312 7.07107 7.81025 
8.24621 7.54983 6.9282 6.40312 6 5.74456 5.65685 5.74456 6 
6.40312 6.9282 7.54983 8.24621 8.77496 8.12404 7.54983 7.07107 6.7082 
6.48074 6.40312 6.48074 6.7082 7.07107 7.54983 8.12404 8.77496 9.38083 
8.77496 8.24621 7.81025 7.48331 7.28011 7.2111 7.28011 7.48331 7.81025 
8.24621 8.77496 9.38083 9 8.3666 7.81025 7.34847 7 6.78233 
6.7082 6.78233 7 7.34847 7.81025 8.3666 9 8.3666 7.68115 
7.07107 6.55744 6.16441 5.91608 5.83095 5.91608 6.16441 6.55744 7.07107 
7.68115 8.3666 7.81025 7.07107 6.40312 5.83095 5.38516 5.09902 5 
5.09902 5.38516 5.83095 6.40312 7.07107 7.81025 7.34847 6.55744 5.83095 
5.19615 4.69042 4.3589 4.24264 4.3589 4.69042 5.19615 5.83095 6.55744 
7.34847 7 6.16441 5.38516 4.69042 4.12311 3.74166 3.60555 3.74166 
4.12311 4.69042 5.38516 6.16441 7 6.78233 5.91608 5.09902 4.3589 
3.74166 3.31662 3.16228 3.31662 3.74166 4.3589 5.09902 5.91608 6.78233 
6.7082 5.83095 5 4.24264 3.60555 3.16228 3 3.16228 3.60555 
4.24264 5 5.83095 6.7082 6.78233 5.91608 5.09902 4.3589 3.74166 
3.31662 3.16228 3.31662 3.74166 4.3589 5.09902 5.91608 6.78233 7 
6.16441 5.38516 4.69042 4.12311 3.74166 3.60555 3.74166 4.12311 4.69042 
5.38516 6.16441 7 7.34847 6.55744 5.83095 5.19615 4.69042 4.3589 
4.24264 4.3589 4.69042 5.19615 5.83095 6.55744 7.34847 7.81025 7.07107 
6.40312 5.83095 5.38516 5.09902 5 5.09902 5.38516 5.83095 6.40312 
7.07107 7.81025 8.3666 7.68115 7.07107 6.55744 6.16441 5.91608 5.83095 
5.91608 6.16441 6.55744 7.07107 7.68115 8.3666 9 8.3666 7.81025 
7.34847 7 6.78233 6.7082 6.78233 7 7.34847 7.81025 8.3666 
9 8.7178 8.06226 7.48331 7 6.63325 6.40312 6.32456 6.40312 
6.63325 7 7.48331 8.06226 8.7178 8.06226 7.34847 6.7082 6.16441 
5.74456 5.47723 5.38516 5.47723 5.74456 6.16441 6.7082 7.34847 8.06226 
7.48331 6.7082 6 5.38516 4.89898 4.58258 4.47214 4.58258 4.89898 
5.38516 6 6.7082 7.48331 7 6.16441 5.38516 4.69042 4.12311 
3.74166 3.60555 3.74166 4.12311 4.69042 5.38516 6.16441 7 6.63325 
5.74456 4.89898 4.12311 3.4641 3 2.82843 3 3.4641 4.12311 
4.89898 5.74456 6.63325 6.40312 5.47723 4.58258 3.74166 3 2.44949 
2.23607 2.44949 3 3.74166 4.58258 5.47723 6.40312 6.32456 5.38516 
4.47214 3.60555 2.82843 2.23607 2 2.23607 2.82843 3.60555 4.47214 
5.38516 6.32456 6.40312 5.47723 4.58258 3.74166 3 2.44949 2.23607 
2.44949 3 3.74166 4.58258 5.47723 6.40312 6.63325 5.74456 4.89898 
4.12311 3.4641 3 2.82843 3 3.4641 4.12311 4.89898 5.74456 
6.63325 7 6.16441 5.38516 4.69042 4.12311 3.74166 3.60555 3.74166 
4.12311 4.69042 5.38516 6.16441 7 7.48331 6.7082 6 5.38516 
4.89898 4.58258 4.47214 4.58258 4.89898 5.38516 6 6.7082 7.48331 
8.06226 7.34847 6.7082 6.16441 5.74456 5.47723 5.38516 5.47723 5.74456 
6.16441 6.7082 7.34847 8.06226 8.7178 8.06226 7.48331 7 6.63325 
6.40312 6.32456 6.40312 6.63325 7 7.48331 8.06226 8.7178 8.544 
7.87401 7.28011 6.78233 6.40312 6.16441 6.08276 6.16441 6.40312 6.78233 
7.28011 7.87401 8.544 7.87401 7.14143 6.48074 5.91608 5.47723 5.19615 
5.09902 5.19615 5.47723 5.91608 6.48074 7.14143 7.87401 7.28011 6.48074 
5.74456 5.09902 4.58258 4.24264 4.12311 4.24264 4.58258 5.09902 5.74456 
6.48074 7.28011 6.78233 5.91608 5.09902 4.3589 3.74166 3.31662 3.16228 
3.31662 3.74166 4.3589 5.09902 5.91608 6.78233 6.40312 5.47723 4.58258 
3.74166 3 2.44949 2.23607 2.44949 3 3.74166 4.58258 5.47723 
6.40312 6.16441 5.19615 4.24264 3.31662 2.44949 1.73205 1.41421 1.73205 
2.44949 3.31662 4.24264 5.19615 6.16441 6.08276 5.09902 4.12311 3.16228 
2.23607 1.41421 1 1.41421 2.23607 3.16228 4.12311 5.09902 6.08276 
6.16441 5.19615 4.24264 3.31662 2.44949 1.73205 1.41421 1.73205 2.44949 
3.31662 4.24264 5.19615 6.16441 6.40312 5.47723 4.58258 3.74166 3 
2.44949 2.23607 2.44949 3 3.74166 4.58258 5.47723 6.40312 6.78233 
5.91608 5.09902 4.3589 3.74166 3.31662 3.16228 3.31662 3.74166 4.3589 
5.09902 5.91608 6.78233 7.28011 6.48074 5.74456 5.09902 4.58258 4.24264 
4.12311 4.24264 4.58258 5.09902 5.74456 6.48074 7.28011 7.87401 7.14143 
6.48074 5.91608 5.47723 5.19615 5.09902 5.19615 5.47723 5.91608 6.48074 
7.14143 7.87401 8.544 7.87401 7.28011 6.78233 6.40312 6.16441 6.08276 
6.16441 6.40312 6.78233 7.28011 7.87401 8.544 8.48528 7.81025 7.2111 
6.7082 6.32456 6.08276 6 6.08276 6.32456 6.7082 7.2111 7.81025 
8.48528 7.81025 7.07107 6.40312 5.83095 5.38516 5.09902 5 5.09902 
5.38516 5.83095 6.40312 7.07107 7.81025 7.2111 6.40312 5.65685 5 
4.47214 4.12311 4 4.12311 4.47214 5 5.65685 6.40312 7.2111 
6.7082 5.83095 5 4.24264 3.60555 3.16228 3 3.16228 3.60555 
4.24264 5 5.83095 6.7082 6.32456 5.38516 4.47214 3.60555 2.82843 
2.23607 2 2.23607 2.82843 3.60555 4.47214 5.38516 6.32456 6.08276 
5.09902 4.12311 3.16228 2.23607 1.41421 1 1.41421 2.23607 3.16228 
4.12311 5.09902 6.08276 6 5 4 3 2 1 
0 1 2 3 4 5 6 6.08276 5.09902 
4.12311 3.16228 2.23607 1.41421 1 1.41421 2.23607 3.16228 4.12311 
5.09902 6.08276 6.32456 5.38516 4.47214 3.60555 2.82843 2.23607 2 
2.23607 2.82843 3.60555 4.47214 5.38516 6.32456 6.7082 5.83095 5 
4.24264 3.60555 3.16228 3 3.16228 3.60555 4.24264 5 5.83095 
6.7082 7.2111 6.40312 5.65685 5 4.47214 4.12311 4 4.12311 
4.47214 5 5.65685 6.40312 7.2111 7.81025 7.07107 6.40312 5.83095 
5.38516 5.09902 5 5.09902 5.38516 5.83095 6.40312 7.07107 7.81025 
8.48528 7.81025 7.2111 6.7082 6.32456 6.08276 6 6.08276 6.32456 
6.7082 7.2111 7.81025 8.48528 8.544 7.87401 7.28011 6.78233 6.40312 
6.16441 6.08276 6.16441 6.40312 6.78233 7.28011 7.87401 8.544 7.87401 
7.14143 6.48074 5.91608 5.47723 5.19615 5.09902 5.19615 5.47723 5.91608 
6.48074 7.14143 7.87401 7.28011 6.48074 5.74456 5.09902 4.58258 4.24264 
4.12311 4.24264 4.58258 5.09902 5.74456 6.48074 7.28011 6.78233 5.91608 
5.09902 4.3589 3.74166 3.31662 3.16228 3.31662 3.74166 4.3589 5.09902 
5.91608 6.78233 6.40312 5.47723 4.58258 3.74166 3 2.44949 2.23607 
2.44949 3 3.74166 4.58258 5.47723 6.40312 6.16441 5.19615 4.24264 
3.31662 2.44949 1.73205 1.41421 1.73205 2.44949 3.31662 4.24264 5.19615 
6.16441 6.08276 5.09902 4.12311 3.16228 2.23607 1.41421 1 1.41421 
2.23607 3.16228 4.12311 5.09902 6.08276 6.16441 5.19615 4.24264 3.31662 
2.44949 1.73205 1.41421 1.73205 2.44949 3.31662 4.24264 5.19615 6.16441 
6.40312 5.47723 4.58258 3.74166 3 2.44949 2.23607 2.44949 3 
3.74166 4.58258 5.47723 6.40312 6.78233 5.91608 5.09902 4.3589 3.74166 
3.31662 3.16228 3.31662 3.74166 4.3589 5.09902 5.91608 6.78233 7.28011 
6.48074 5.74456 5.09902 4.58258 4.24264 4.12311 4.24264 4.58258 5.09902 
5.74456 6.48074 7.28011 7.87401 7.14143 6.48074 5.91608 5.47723 5.19615 
5.09902 5.19615 5.47723 5.91608 6.48074 7.14143 7.87401 8.544 7.87401 
7.28011 6.78233 6.40312 6.16441 6.08276 6.16441 6.40312 6.78233 7.28011 
7.87401 8.544 8.7178 8.06226 7.48331 7 6.63325 6.40312 6.32456 
6.40312 6.63325 7 7.48331 8.06226 8.7178 8.06226 7.34847 6.7082 
6.16441 5.74456 5.47723 5.38516 5.47723 5.74456 6.16441 6.7082 7.34847 
8.06226 7.48331 6.7082 6 5.38516 4.89898 4.58258 4.47214 4.58258 
4.89898 5.38516 6 6.7082 7.48331 7 6.16441 5.38516 4.69042 
4.12311 3.74166 3.60555 3.74166 4.12311 4.69042 5.38516 6.16441 7 
6.63325 5.74456 4.89898 4.12311 3.4641 3 2.82843 3 3.4641 
4.12311 4.89898 5.74456 6.63325 6.40312 5.47723 4.58258 3.74166 3 
2.44949 2.23607 2.44949 3 3.74166 4.58258 5.47723 6.40312 6.32456 
5.38516 4.47214 3.60555 2.82843 2.23607 2 2.23607 2.82843 3.60555 
4.47214 5.38516 6.32456 6.40312 5.47723 4.58258 3.74166 3 2.44949 
2.23607 2.44949 3 3.74166 4.58258 5.47723 6.40312 6.63325 5.74456 
4.89898 4.12311 3.4641 3 2.82843 3 3.4641 4.12311 4.89898 
5.74456 6.63325 7 6.16441 5.38516 4.69042 4.12311 3.74166 3.60555 
3.74166 4.12311 4.69042 5.38516 6.16441 7 7.48331 6.7082 6 
5.38516 4.89898 4.58258 4.47214 4.58258 4.89898 5.38516 6 6.7082 
7.48331 8.06226 7.34847 6.7082 6.16441 5.74456 5.47723 5.38516 5.47723 
5.74456 6.16441 6.7082 7.34847 8.06226 8.7178 8.06226 7.48331 7 
6.63325 6.40312 6.32456 6.40312 6.63325 7 7.48331 8.06226 8.7178 
9 8.3666 7.81025 7.34847 7 6.78233 6.7082 6.78233 7 
7.34847 7.81025 8.3666 9 8.3666 7.68115 7.07107 6.55744 6.16441 
5.91608 5.83095 5.91608 6.16441 6.55744 7.07107 7.68115 8.3666 7.81025 
7.07107 6.40312 5.83095 5.38516 5.09902 5 5.09902 5.38516 5.83095 
6.40312 7.07107 7.81025 7.34847 6.55744 5.83095 5.19615 4.69042 4.3589 
4.24264 4.3589 4.69042 5.19615 5.83095 6.55744 7.34847 7 6.16441 
5.38516 4.69042 4.12311 3.74166 3.60555 3.74166 4.12311 4.69042 5.38516 
6.16441 7 6.78233 5.91608 5.09902 4.3589 3.74166 3.31662 3.16228 
3.31662 3.74166 4.3589 5.09902 5.91608 6.78233 6.7082 5.83095 5 
4.24264 3.60555 3.16228 3 3.16228 3.60555 4.24264 5 5.83095 
6.7082 6.78233 5.91608 5.09902 4.3589 3.74166 3.31662 3.16228 3.31662 
3.74166 4.3589 5.09902 5.91608 6.78233 7 6.16441 5.38516 4.69042 
4.12311 3.74166 3.60555 3.74166 4.12311 4.69042 5.38516 6.16441 7 
7.34847 6.55744 5.83095 5.19615 4.69042 4.3589 4.24264 4.3589 4.69042 
5.19615 5.83095 6.55744 7.34847 7.81025 7.07107 6.40312 5.83095 5.38516 
5.09902 5 5.09902 5.38516 5.83095 6.40312 7.07107 7.81025 8.3666 
7.68115 7.07107 6.55744 6.16441 5.91608 5.83095 5.91608 6.16441 6.55744 
7.07107 7.68115 8.3666 9 8.3666 7.81025 7.34847 7 6.78233 
6.7082 6.78233 7 7.34847 7.81025 8.3666 9 9.38083 8.77496 
8.24621 7.81025 7.48331 7.28011 7.2111 7.28011 7.48331 7.81025 8.24621 
8.77496 9.38083 8.77496 8.12404 7.54983 7.07107 6.7082 6.48074 6.40312 
6.48074 6.7082 7.07107 7.54983 8.12404 8.77496 8.24621 7.54983 6.9282 
6.40312 6 5.74456 5.65685 5.74456 6 6.40312 6.9282 7.54983 
8.24621 7.81025 7.07107 6.40312 5.83095 5.38516 5.09902 5 5.09902 
5.38516 5.83095 6.40312 7.07107 7.81025 7.48331 6.7082 6 5.38516 
4.89898 4.58258 4.47214 4.58258 4.89898 5.38516 6 6.7082 7.48331 
7.28011 6.48074 5.74456 5.09902 4.58258 4.24264 4.12311 4.24264 4.58258 
5.09902 5.74456 6.48074 7.28011 7.2111 6.40312 5.65685 5 4.47214 
4.12311 4 4.12311 4.47214 5 5.65685 6.40312 7.2111 7.28011 
6.48074 5.74456 5.09902 4.58258 4.24264 4.12311 4.24264 4.58258 5.09902 
5.74456 6.48074 7.28011 7.48331 6.7082 6 5.38516 4.89898 4.58258 
4.47214 4.58258 4.89898 5.38516 6 6.7082 7.48331 7.81025 7.07107 
6.40312 5.83095 5.38516 5.09902 5 5.09902 5.38516 5.83095 6.40312 
7.07107 7.81025 8.24621 7.54983 6.9282 6.40312 6 5.74456 5.65685 
5.74456 6 6.40312 6.9282 7.54983 8.24621 8.77496 8.12404 7.54983 
7.07107 6.7082 6.48074 6.40312 6.48074 6.7082 7.07107 7.54983 8.12404 
8.77496 9.38083 8.77496 8.24621 7.81025 7.48331 7.28011 7.2111 7.28011 
7.48331 7.81025 8.24621 8.77496 9.38083 9.84886 9.27362 8.77496 8.3666 
8.06226 7.87401 7.81025 7.87401 8.06226 8.3666 8.77496 9.27362 9.84886 
9.27362 8.66025 8.12404 7.68115 7.34847 7.14143 7.07107 7.14143 7.34847 
7.68115 8.12404 8.66025 9.27362 8.77496 8.12404 7.54983 7.07107 6.7082 
6.48074 6.40312 6.48074 6.7082 7.07107 7.54983 8.12404 8.77496 8.3666 
7.68115 7.07107 6.55744 6.16441 5.91608 5.83095 5.91608 6.16441 6.55744 
7.07107 7.68115 8.3666 8.06226 7.34847 6.7082 6.16441 5.74456 5.47723 
5.38516 5.47723 5.74456 6.16441 6.7082 7.34847 8.06226 7.87401 7.14143 
6.48074 5.91608 5.47723 5.19615 5.09902 5.19615 5.47723 5.91608 6.48074 
7.14143 7.87401 7.81025 7.07107 6.40312 5.83095 5.38516 5.09902 5 
5.09902 5.38516 5.83095 6.40312 7.07107 7.81025 7.87401 7.14143 6.48074 
5.91608 5.47723 5.19615 5.09902 5.19615 5.47723 5.91608 6.48074 7.14143 
7.87401 8.06226 7.34847 6.7082 6.16441 5.74456 5.47723 5.38516 5.47723 
5.74456 6.16441 6.7082 7.34847 8.06226 8.3666 7.68115 7.07107 6.55744 
6.16441 5.91608 5.83095 5.91608 6.16441 6.55744 7.07107 7.68115 8.3666 
8.77496 8.12404 7.54983 7.07107 6.7082 6.48074 6.40312 6.48074 6.7082 
7.07107 7.54983 8.12404 8.77496 9.27362 8.66025 8.12404 7.68115 7.34847 
7.14143 7.07107 7.14143 7.34847 7.68115 8.12404 8.66025 9.27362 9.84886 
9.27362 8.77496 8.3666 8.06226 7.87401 7.81025 7.87401 8.06226 8.3666 
8.77496 9.27362 9.84886 10.3923 9.84886 9.38083 9 8.7178 8.544 
8.48528 8.544 8.7178 9 9.38083 9.84886 10.3923 9.84886 9.27362 
8.77496 8.3666 8.06226 7.87401 7.81025 7.87401 8.06226 8.3666 8.77496 
9.27362 9.84886 9.38083 8.77496 8.24621 7.81025 7.48331 7.28011 7.2111 
7.28011 7.48331 7.81025 8.24621 8.77496 9.38083 9 8.3666 7.81025 
7.34847 7 6.78233 6.7082 6.78233 7 7.34847 7.81025 8.3666 
9 8.7178 8.06226 7.48331 7 6.63325 6.40312 6.32456 6.40312 
6.63325 7 7.48331 8.06226 8.7178 8.544 7.87401 7.28011 6.78233 
6.40312 6.16441 6.08276 6.16441 6.40312 6.78233 7.28011 7.87401 8.544 
8.48528 7.81025 7.2111 6.7082 6.32456 6.08276 6 6.08276 6.32456 
6.7082 7.2111 7.81025 8.48528 8.544 7.87401 7.28011 6.78233 6.40312 
6.16441 6.08276 6.16441 6.40312 6.78233 7.28011 7.87401 8.544 8.7178 
8.06226 7.48331 7 6.63325 6.40312 6.32456 6.40312 6.63325 7 
7.48331 8.06226 8.7178 9 8.3666 7.81025 7.34847 7 6.78233 
6.7082 6.78233 7 7.34847 7.81025 8.3666 9 9.38083 8.77496 
8.24621 7.81025 7.48331 7.28011 7.2111 7.28011 7.48331 7.81025 8.24621 
8.77496 9.38083 9.84886 9.27362 8.77496 8.3666 8.06226 7.87401 7.81025 
7.87401 8.06226 8.3666 8.77496 9.27362 9.84886 10.3923 9.84886 9.38083 
9 8.7178 8.544 8.48528 8.544 8.7178 9 9.38083 9.84886 
10.3923 9.52628 8.9861 8.52936 8.17007 7.92149 7.79423 7.79423 7.92149 
8.17007 8.52936 8.9861 9.52628 8.9861 8.4113 7.92149 7.53326 7.26292 
7.1239 7.1239 7.26292 7.53326 7.92149 8.4113 8.9861 8.52936 7.92149 
7.39932 6.98212 6.68954 6.53835 6.53835 6.68954 6.98212 7.39932 7.92149 
8.52936 8.17007 7.53326 6.98212 6.53835 6.22495 6.06218 6.06218 6.22495 
6.53835 6.98212 7.53326 8.17007 7.92149 7.26292 6.68954 6.22495 5.89491 
5.72276 5.72276 5.89491 6.22495 6.68954 7.26292 7.92149 7.79423 7.1239 
6.53835 6.06218 5.72276 5.54527 5.54527 5.72276 6.06218 6.53835 7.1239 
7.79423 7.79423 7.1239 6.53835 6.06218 5.72276 5.54527 5.54527 5.72276 
6.06218 6.53835 7.1239 7.79423 7.92149 7.26292 6.68954 6.22495 5.89491 
5.72276 5.72276 5.89491 6.22495 6.68954 7.26292 7.92149 8.17007 7.53326 
6.98212 6.53835 6.22495 6.06218 6.06218 6.22495 6.53835 6.98212 7.53326 
8.17007 8.52936 7.92149 7.39932 6.98212 6.68954 6.53835 6.53835 6.68954 
6.98212 7.39932 7.92149 8.52936 8.9861 8.4113 7.92149 7.53326 7.26292 
7.1239 7.1239 7.26292 7.53326 7.92149 8.4113 8.9861 9.52628 8.9861 
8.52936 8.17007 7.92149 7.79423 7.79423 7.92149 8.17007 8.52936 8.9861 
9.52628 8.9861 8.4113 7.92149 7.53326 7.26292 7.1239 7.1239 7.26292 
7.53326 7.92149 8.4113 8.9861 8.4113 7.79423 7.26292 6.8374 6.53835 
6.38357 6.38357 6.53835 6.8374 7.26292 7.79423 8.4113 7.92149 7.26292 
6.68954 6.22495 5.89491 5.72276 5.72276 5.89491 6.22495 6.68954 7.26292 
7.92149 7.53326 6.8374 6.22495 5.72276 5.3619 5.17204 5.17204 5.3619 
5.72276 6.22495 6.8374 7.53326 7.26292 6.53835 5.89491 5.3619 4.97494 
4.7697 4.7697 4.97494 5.3619 5.89491 6.53835 7.26292 7.1239 6.38357 
5.72276 5.17204 4.7697 4.55522 4.55522 4.7697 5.17204 5.72276 6.38357 
7.1239 7.1239 6.38357 5.72276 5.17204 4.7697 4.55522 4.55522 4.7697 
5.17204 5.72276 6.38357 7.1239 7.26292 6.53835 5.89491 5.3619 4.97494 
4.7697 4.7697 4.97494 5.3619 5.89491 6.53835 7.26292 7.53326 6.8374 
6.22495 5.72276 5.3619 5.17204 5.17204 5.3619 5.72276 6.22495 6.8374 
7.53326 7.92149 7.26292 6.68954 6.22495 5.89491 5.72276 5.72276 5.89491 
6.22495 6.68954 7.26292 7.92149 8.4113 7.79423 7.26292 6.8374 6.53835 
6.38357 6.38357 6.53835 6.8374 7.26292 7.79423 8.4113 8.9861 8.4113 
7.92149 7.53326 7.26292 7.1239 7.1239 7.26292 7.53326 7.92149 8.4113 
8.9861 8.52936 7.92149 7.39932 6.98212 6.68954 6.53835 6.53835 6.68954 
6.98212 7.39932 7.92149 8.52936 7.92149 7.26292 6.68954 6.22495 5.89491 
5.72276 5.72276 5.89491 6.22495 6.68954 7.26292 7.92149 7.39932 6.68954 
6.06218 5.54527 5.17204 4.97494 4.97494 5.17204 5.54527 6.06218 6.68954 
7.39932 6.98212 6.22495 5.54527 4.97494 4.55522 4.33013 4.33013 4.55522 
4.97494 5.54527 6.22495 6.98212 6.68954 5.89491 5.17204 4.55522 4.09268 
3.84057 3.84057 4.09268 4.55522 5.17204 5.89491 6.68954 6.53835 5.72276 
4.97494 4.33013 3.84057 3.57071 3.57071 3.84057 4.33013 4.97494 5.72276 
6.53835 6.53835 5.72276 4.97494 4.33013 3.84057 3.57071 3.57071 3.84057 
4.33013 4.97494 5.72276 6.53835 6.68954 5.89491 5.17204 4.55522 4.09268 
3.84057 3.84057 4.09268 4.55522 5.17204 5.89491 6.68954 6.98212 6.22495 
5.54527 4.97494 4.55522 4.33013 4.33013 4.55522 4.97494 5.54527 6.22495 
6.98212 7.39932 6.68954 6.06218 5.54527 5.17204 4.97494 4.97494 5.17204 
5.54527 6.06218 6.68954 7.39932 7.92149 7.26292 6.68954 6.22495 5.89491 
5.72276 5.72276 5.89491 6.22495 6.68954 7.26292 7.92149 8.52936 7.92149 
7.39932 6.98212 6.68954 6.53835 6.53835 6.68954 6.98212 7.39932 7.92149 