# vtk DataFile Version 5.1
vtk output
ASCII
DATASET UNSTRUCTURED_GRID
POINTS 2331 float
0 0 0 1 0 0 2 0 0 
3 0 0 4 0 0 5 0 0 
6 0 0 7 0 0 8 0 0 
9 0 0 10 0 0 0 1 0 
1 1 0 2 1 0 3 1 0 
4 1 0 5 1 0 6 1 0 
7 1 0 8 1 0 9 1 0 
10 1 0 0 2 0 1 2 0 
2 2 0 3 2 0 4 2 0 
5 2 0 6 2 0 7 2 0 
8 2 0 9 2 0 10 2 0 
0 3 0 1 3 0 2 3 0 
3 3 0 4 3 0 5 3 0 
6 3 0 7 3 0 8 3 0 
9 3 0 10 3 0 0 4 0 
1 4 0 2 4 0 3 4 0 
4 4 0 5 4 0 6 4 0 
7 4 0 8 4 0 9 4 0 
10 4 0 0 5 0 1 5 0 
2 5 0 3 5 0 4 5 0 
5 5 0 6 5 0 7 5 0 
8 5 0 9 5 0 10 5 0 
0 6 0 1 6 0 2 6 0 
3 6 0 4 6 0 5 6 0 
6 6 0 7 6 0 8 6 0 
9 6 0 10 6 0 0 7 0 
1 7 0 2 7 0 3 7 0 
4 7 0 5 7 0 6 7 0 
7 7 0 8 7 0 9 7 0 
10 7 0 0 8 0 1 8 0 
2 8 0 3 8 0 4 8 0 
5 8 0 6 8 0 7 8 0 
8 8 0 9 8 0 10 8 0 
0 9 0 1 9 0 2 9 0 
3 9 0 4 9 0 5 9 0 
6 9 0 7 9 0 8 9 0 
9 9 0 10 9 0 0 10 0 
1 10 0 2 10 0 3 10 0 
4 10 0 5 10 0 6 10 0 
7 10 0 8 10 0 9 10 0 
10 10 0 0 0 1 1 0 1 
2 0 1 3 0 1 4 0 1 
5 0 1 6 0 1 7 0 1 
8 0 1 9 0 1 10 0 1 
0 1 1 1 1 1 2 1 1 
3 1 1 4 1 1 5 1 1 
6 1 1 7 1 1 8 1 1 
9 1 1 10 1 1 0 2 1 
1 2 1 2 2 1 3 2 1 
4 2 1 5 2 1 6 2 1 
7 2 1 8 2 1 9 2 1 
10 2 1 0 3 1 1 3 1 
2 3 1 3 3 1 4 3 1 
5 3 1 6 3 1 7 3 1 
8 3 1 9 3 1 10 3 1 
0 4 1 1 4 1 2 4 1 
3 4 1 4 4 1 5 4 1 
6 4 1 7 4 1 8 4 1 
9 4 1 10 4 1 0 5 1 
1 5 1 2 5 1 3 5 1 
4 5 1 5 5 1 6 5 1 
7 5 1 8 5 1 9 5 1 
10 5 1 0 6 1 1 6 1 
2 6 1 3 6 1 4 6 1 
5 6 1 6 6 1 7 6 1 
8 6 1 9 6 1 10 6 1 
0 7 1 1 7 1 2 7 1 
3 7 1 4 7 1 5 7 1 
6 7 1 7 7 1 8 7 1 
9 7 1 10 7 1 0 8 1 
1 8 1 2 8 1 3 8 1 
4 8 1 5 8 1 6 8 1 
7 8 1 8 8 1 9 8 1 
10 8 1 0 9 1 1 9 1 
2 9 1 3 9 1 4 9 1 
5 9 1 6 9 1 7 9 1 
8 9 1 9 9 1 10 9 1 
0 10 1 1 10 1 2 10 1 
3 10 1 4 10 1 5 10 1 
6 10 1 7 10 1 8 10 1 
9 10 1 10 10 1 0 0 2 
1 0 2 2 0 2 3 0 2 
4 0 2 5 0 2 6 0 2 
7 0 2 8 0 2 9 0 2 
10 0 2 0 1 2 1 1 2 
2 1 2 3 1 2 4 1 2 
5 1 2 6 1 2 7 1 2 
8 1 2 9 1 2 10 1 2 
0 2 2 1 2 2 2 2 2 
3 2 2 4 2 2 5 2 2 
6 2 2 7 2 2 8 2 2 
9 2 2 10 2 2 0 3 2 
1 3 2 2 3 2 3 3 2 
4 3 2 5 3 2 6 3 2 
7 3 2 8 3 2 9 3 2 
10 3 2 0 4 2 1 4 2 
2 4 2 3 4 2 4 4 2 
5 4 2 6 4 2 7 4 2 
8 4 2 9 4 2 10 4 2 
0 5 2 1 5 2 2 5 2 
3 5 2 4 5 2 5 5 2 
6 5 2 7 5 2 8 5 2 
9 5 2 10 5 2 0 6 2 
1 6 2 2 6 2 3 6 2 
4 6 2 5 6 2 6 6 2 
7 6 2 8 6 2 9 6 2 
10 6 2 0 7 2 1 7 2 
2 7 2 3 7 2 4 7 2 
5 7 2 6 7 2 7 7 2 
8 7 2 9 7 2 10 7 2 
0 8 2 1 8 2 2 8 2 
3 8 2 4 8 2 5 8 2 
6 8 2 7 8 2 8 8 2 
9 8 2 10 8 2 0 9 2 
1 9 2 2 9 2 3 9 2 
4 9 2 5 9 2 6 9 2 
7 9 2 8 9 2 9 9 2 
10 9 2 0 10 2 1 10 2 
2 10 2 3 10 2 4 10 2 
5 10 2 6 10 2 7 10 2 
8 10 2 9 10 2 10 10 2 
0 0 3 1 0 3 2 0 3 
3 0 3 4 0 3 5 0 3 
6 0 3 7 0 3 8 0 3 
9 0 3 10 0 3 0 1 3 
1 1 3 2 1 3 3 1 3 
4 1 3 5 1 3 6 1 3 
7 1 3 8 1 3 9 1 3 
10 1 3 0 2 3 1 2 3 
2 2 3 3 2 3 4 2 3 
5 2 3 6 2 3 7 2 3 
8 2 3 9 2 3 10 2 3 
0 3 3 1 3 3 2 3 3 
3 3 3 4 3 3 5 3 3 
6 3 3 7 3 3 8 3 3 
9 3 3 10 3 3 0 4 3 
1 4 3 2 4 3 3 4 3 
4 4 3 5 4 3 6 4 3 
7 4 3 8 4 3 9 4 3 
10 4 3 0 5 3 1 5 3 
2 5 3 3 5 3 4 5 3 
5 5 3 6 5 3 7 5 3 
8 5 3 9 5 3 10 5 3 
0 6 3 1 6 3 2 6 3 
3 6 3 4 6 3 5 6 3 
6 6 3 7 6 3 8 6 3 
9 6 3 10 6 3 0 7 3 
1 7 3 2 7 3 3 7 3 
4 7 3 5 7 3 6 7 3 
7 7 3 8 7 3 9 7 3 
10 7 3 0 8 3 1 8 3 
2 8 3 3 8 3 4 8 3 
5 8 3 6 8 3 7 8 3 
8 8 3 9 8 3 10 8 3 
0 9 3 1 9 3 2 9 3 
3 9 3 4 9 3 5 9 3 
6 9 3 7 9 3 8 9 3 
9 9 3 10 9 3 0 10 3 
1 10 3 2 10 3 3 10 3 
4 10 3 5 10 3 6 10 3 
7 10 3 8 10 3 9 10 3 
10 10 3 0 0 4 1 0 4 
2 0 4 3 0 4 4 0 4 
5 0 4 6 0 4 7 0 4 
8 0 4 9 0 4 10 0 4 
0 1 4 1 1 4 2 1 4 
3 1 4 4 1 4 5 1 4 
6 1 4 7 1 4 8 1 4 
9 1 4 10 1 4 0 2 4 
1 2 4 2 2 4 3 2 4 
4 2 4 5 2 4 6 2 4 
7 2 4 8 2 4 9 2 4 
10 2 4 0 3 4 1 3 4 
2 3 4 3 3 4 4 3 4 
5 3 4 6 3 4 7 3 4 
8 3 4 9 3 4 10 3 4 
0 4 4 1 4 4 2 4 4 
3 4 4 4 4 4 5 4 4 
6 4 4 7 4 4 8 4 4 
9 4 4 10 4 4 0 5 4 
1 5 4 2 5 4 3 5 4 
4 5 4 5 5 4 6 5 4 
7 5 4 8 5 4 9 5 4 
10 5 4 0 6 4 1 6 4 
2 6 4 3 6 4 4 6 4 
5 6 4 6 6 4 7 6 4 
8 6 4 9 6 4 10 6 4 
0 7 4 1 7 4 2 7 4 
3 7 4 4 7 4 5 7 4 
6 7 4 7 7 4 8 7 4 
9 7 4 10 7 4 0 8 4 
1 8 4 2 8 4 3 8 4 
4 8 4 5 8 4 6 8 4 
7 8 4 8 8 4 9 8 4 
10 8 4 0 9 4 1 9 4 
2 9 4 3 9 4 4 9 4 
5 9 4 6 9 4 7 9 4 
8 9 4 9 9 4 10 9 4 
0 10 4 1 10 4 2 10 4 
3 10 4 4 10 4 5 10 4 
6 10 4 7 10 4 8 10 4 
9 10 4 10 10 4 0 0 5 
1 0 5 2 0 5 3 0 5 
4 0 5 5 0 5 6 0 5 
7 0 5 8 0 5 9 0 5 
10 0 5 0 1 5 1 1 5 
2 1 5 3 1 5 4 1 5 
5 1 5 6 1 5 7 1 5 
8 1 5 9 1 5 10 1 5 
0 2 5 1 2 5 2 2 5 
3 2 5 4 2 5 5 2 5 
6 2 5 7 2 5 8 2 5 
9 2 5 10 2 5 0 3 5 
1 3 5 2 3 5 3 3 5 
4 3 5 5 3 5 6 3 5 
7 3 5 8 3 5 9 3 5 
10 3 5 0 4 5 1 4 5 
2 4 5 3 4 5 4 4 5 
5 4 5 6 4 5 7 4 5 
8 4 5 9 4 5 10 4 5 
0 5 5 1 5 5 2 5 5 
3 5 5 4 5 5 5 5 5 
6 5 5 7 5 5 8 5 5 
9 5 5 10 5 5 0 6 5 
1 6 5 2 6 5 3 6 5 
4 6 5 5 6 5 6 6 5 
7 6 5 8 6 5 9 6 5 
10 6 5 0 7 5 1 7 5 
2 7 5 3 7 5 4 7 5 
5 7 5 6 7 5 7 7 5 
8 7 5 9 7 5 10 7 5 
0 8 5 1 8 5 2 8 5 
3 8 5 4 8 5 5 8 5 
6 8 5 7 8 5 8 8 5 
9 8 5 10 8 5 0 9 5 
1 9 5 2 9 5 3 9 5 
4 9 5 5 9 5 6 9 5 
7 9 5 8 9 5 9 9 5 
10 9 5 0 10 5 1 10 5 
2 10 5 3 10 5 4 10 5 
5 10 5 6 10 5 7 10 5 
8 10 5 9 10 5 10 10 5 
0 0 6 1 0 6 2 0 6 
3 0 6 4 0 6 5 0 6 
6 0 6 7 0 6 8 0 6 
9 0 6 10 0 6 0 1 6 
1 1 6 2 1 6 3 1 6 
4 1 6 5 1 6 6 1 6 
7 1 6 8 1 6 9 1 6 
10 1 6 0 2 6 1 2 6 
2 2 6 3 2 6 4 2 6 
5 2 6 6 2 6 7 2 6 
8 2 6 9 2 6 10 2 6 
0 3 6 1 3 6 2 3 6 
3 3 6 4 3 6 5 3 6 
6 3 6 7 3 6 8 3 6 
9 3 6 10 3 6 0 4 6 
1 4 6 2 4 6 3 4 6 
4 4 6 5 4 6 6 4 6 
7 4 6 8 4 6 9 4 6 
10 4 6 0 5 6 1 5 6 
2 5 6 3 5 6 4 5 6 
5 5 6 6 5 6 7 5 6 
8 5 6 9 5 6 10 5 6 
0 6 6 1 6 6 2 6 6 
3 6 6 4 6 6 5 6 6 
6 6 6 7 6 6 8 6 6 
9 6 6 10 6 6 0 7 6 
1 7 6 2 7 6 3 7 6 
4 7 6 5 7 6 6 7 6 
7 7 6 8 7 6 9 7 6 
10 7 6 0 8 6 1 8 6 
2 8 6 3 8 6 4 8 6 
5 8 6 6 8 6 7 8 6 
8 8 6 9 8 6 10 8 6 
0 9 6 1 9 6 2 9 6 
3 9 6 4 9 6 5 9 6 
6 9 6 7 9 6 8 9 6 
9 9 6 10 9 6 0 10 6 
1 10 6 2 10 6 3 10 6 
4 10 6 5 10 6 6 10 6 
7 10 6 8 10 6 9 10 6 
10 10 6 0 0 7 1 0 7 
2 0 7 3 0 7 4 0 7 
5 0 7 6 0 7 7 0 7 
8 0 7 9 0 7 10 0 7 
0 1 7 1 1 7 2 1 7 
3 1 7 4 1 7 5 1 7 
6 1 7 7 1 7 8 1 7 
9 1 7 10 1 7 0 2 7 
1 2 7 2 2 7 3 2 7 
4 2 7 5 2 7 6 2 7 
7 2 7 8 2 7 9 2 7 
10 2 7 0 3 7 1 3 7 
2 3 7 3 3 7 4 3 7 
5 3 7 6 3 7 7 3 7 
8 3 7 9 3 7 10 3 7 
0 4 7 1 4 7 2 4 7 
3 4 7 4 4 7 5 4 7 
6 4 7 7 4 7 8 4 7 
9 4 7 10 4 7 0 5 7 
1 5 7 2 5 7 3 5 7 
4 5 7 5 5 7 6 5 7 
7 5 7 8 5 7 9 5 7 
10 5 7 0 6 7 1 6 7 
2 6 7 3 6 7 4 6 7 
5 6 7 6 6 7 7 6 7 
8 6 7 9 6 7 10 6 7 
0 7 7 1 7 7 2 7 7 
3 7 7 4 7 7 5 7 7 
6 7 7 7 7 7 8 7 7 
9 7 7 10 7 7 0 8 7 
1 8 7 2 8 7 3 8 7 
4 8 7 5 8 7 6 8 7 
7 8 7 8 8 7 9 8 7 
10 8 7 0 9 7 1 9 7 
2 9 7 3 9 7 4 9 7 
5 9 7 6 9 7 7 9 7 
8 9 7 9 9 7 10 9 7 
0 10 7 1 10 7 2 10 7 
3 10 7 4 10 7 5 10 7 
6 10 7 7 10 7 8 10 7 
9 10 7 10 10 7 0 0 8 
1 0 8 2 0 8 3 0 8 
4 0 8 5 0 8 6 0 8 
7 0 8 8 0 8 9 0 8 
10 0 8 0 1 8 1 1 8 
2 1 8 3 1 8 4 1 8 
5 1 8 6 1 8 7 1 8 
8 1 8 9 1 8 10 1 8 
0 2 8 1 2 8 2 2 8 
3 2 8 4 2 8 5 2 8 
6 2 8 7 2 8 8 2 8 
9 2 8 10 2 8 0 3 8 
1 3 8 2 3 8 3 3 8 
4 3 8 5 3 8 6 3 8 
7 3 8 8 3 8 9 3 8 
10 3 8 0 4 8 1 4 8 
2 4 8 3 4 8 4 4 8 
5 4 8 6 4 8 7 4 8 
8 4 8 9 4 8 10 4 8 
0 5 8 1 5 8 2 5 8 
3 5 8 4 5 8 5 5 8 
6 5 8 7 5 8 8 5 8 
9 5 8 10 5 8 0 6 8 
1 6 8 2 6 8 3 6 8 
4 6 8 5 6 8 6 6 8 
7 6 8 8 6 8 9 6 8 
10 6 8 0 7 8 1 7 8 
2 7 8 3 7 8 4 7 8 
5 7 8 6 7 8 7 7 8 
8 7 8 9 7 8 10 7 8 
0 8 8 1 8 8 2 8 8 
3 8 8 4 8 8 5 8 8 
6 8 8 7 8 8 8 8 8 
9 8 8 10 8 8 0 9 8 
1 9 8 2 9 8 3 9 8 
4 9 8 5 9 8 6 9 8 
7 9 8 8 9 8 9 9 8 
10 9 8 0 10 8 1 10 8 
2 10 8 3 10 8 4 10 8 
5 10 8 6 10 8 7 10 8 
8 10 8 9 10 8 10 10 8 
0 0 9 1 0 9 2 0 9 
3 0 9 4 0 9 5 0 9 
6 0 9 7 0 9 8 0 9 
9 0 9 10 0 9 0 1 9 
1 1 9 2 1 9 3 1 9 
4 1 9 5 1 9 6 1 9 
7 1 9 8 1 9 9 1 9 
10 1 9 0 2 9 1 2 9 
2 2 9 3 2 9 4 2 9 
5 2 9 6 2 9 7 2 9 
8 2 9 9 2 9 10 2 9 
0 3 9 1 3 9 2 3 9 
3 3 9 4 3 9 5 3 9 
6 3 9 7 3 9 8 3 9 
9 3 9 10 3 9 0 4 9 
1 4 9 2 4 9 3 4 9 
4 4 9 5 4 9 6 4 9 
7 4 9 8 4 9 9 4 9 
10 4 9 0 5 9 1 5 9 
2 5 9 3 5 9 4 5 9 
5 5 9 6 5 9 7 5 9 
8 5 9 9 5 9 10 5 9 
0 6 9 1 6 9 2 6 9 
3 6 9 4 6 9 5 6 9 
6 6 9 7 6 9 8 6 9 
9 6 9 10 6 9 0 7 9 
1 7 9 2 7 9 3 7 9 
4 7 9 5 7 9 6 7 9 
7 7 9 8 7 9 9 7 9 
10 7 9 0 8 9 1 8 9 
2 8 9 3 8 9 4 8 9 
5 8 9 6 8 9 7 8 9 
8 8 9 9 8 9 10 8 9 
0 9 9 1 9 9 2 9 9 
3 9 9 4 9 9 5 9 9 
6 9 9 7 9 9 8 9 9 
9 9 9 10 9 9 0 10 9 
1 10 9 2 10 9 3 10 9 
4 10 9 5 10 9 6 10 9 
7 10 9 8 10 9 9 10 9 
10 10 9 0 0 10 1 0 10 
2 0 10 3 0 10 4 0 10 
5 0 10 6 0 10 7 0 10 
8 0 10 9 0 10 10 0 10 
0 1 10 1 1 10 2 1 10 
3 1 10 4 1 10 5 1 10 
6 1 10 7 1 10 8 1 10 
9 1 10 10 1 10 0 2 10 
1 2 10 2 2 10 3 2 10 
4 2 10 5 2 10 6 2 10 
7 2 10 8 2 10 9 2 10 
10 2 10 0 3 10 1 3 10 
2 3 10 3 3 10 4 3 10 
5 3 10 6 3 10 7 3 10 
8 3 10 9 3 10 10 3 10 
0 4 10 1 4 10 2 4 10 
3 4 10 4 4 10 5 4 10 
6 4 10 7 4 10 8 4 10 
9 4 10 10 4 10 0 5 10 
1 5 10 2 5 10 3 5 10 
4 5 10 5 5 10 6 5 10 
7 5 10 8 5 10 9 5 10 
10 5 10 0 6 10 1 6 10 
2 6 10 3 6 10 4 6 10 
5 6 10 6 6 10 7 6 10 
8 6 10 9 6 10 10 6 10 
0 7 10 1 7 10 2 7 10 
3 7 10 4 7 10 5 7 10 
6 7 10 7 7 10 8 7 10 
9 7 10 10 7 10 0 8 10 
1 8 10 2 8 10 3 8 10 
4 8 10 5 8 10 6 8 10 
7 8 10 8 8 10 9 8 10 
10 8 10 0 9 10 1 9 10 
2 9 10 3 9 10 4 9 10 
5 9 10 6 9 10 7 9 10 
8 9 10 9 9 10 10 9 10 
0 10 10 1 10 10 2 10 10 
3 10 10 4 10 10 5 10 10 
6 10 10 7 10 10 8 10 10 
9 10 10 10 10 10 0.5 0.5 0.5 
1.5 0.5 0.5 2.5 0.5 0.5 3.5 0.5 0.5 
4.5 0.5 0.5 5.5 0.5 0.5 6.5 0.5 0.5 
7.5 0.5 0.5 8.5 0.5 0.5 9.5 0.5 0.5 
0.5 1.5 0.5 1.5 1.5 0.5 2.5 1.5 0.5 
3.5 1.5 0.5 4.5 1.5 0.5 5.5 1.5 0.5 
6.5 1.5 0.5 7.5 1.5 0.5 8.5 1.5 0.5 
9.5 1.5 0.5 0.5 2.5 0.5 1.5 2.5 0.5 
2.5 2.5 0.5 3.5 2.5 0.5 4.5 2.5 0.5 
5.5 2.5 0.5 6.5 2.5 0.5 7.5 2.5 0.5 
8.5 2.5 0.5 9.5 2.5 0.5 0.5 3.5 0.5 
1.5 3.5 0.5 2.5 3.5 0.5 3.5 3.5 0.5 
4.5 3.5 0.5 5.5 3.5 0.5 6.5 3.5 0.5 
7.5 3.5 0.5 8.5 3.5 0.5 9.5 3.5 0.5 
0.5 4.5 0.5 1.5 4.5 0.5 2.5 4.5 0.5 
3.5 4.5 0.5 4.5 4.5 0.5 5.5 4.5 0.5 
6.5 4.5 0.5 7.5 4.5 0.5 8.5 4.5 0.5 
9.5 4.5 0.5 0.5 5.5 0.5 1.5 5.5 0.5 
2.5 5.5 0.5 3.5 5.5 0.5 4.5 5.5 0.5 
5.5 5.5 0.5 6.5 5.5 0.5 7.5 5.5 0.5 
8.5 5.5 0.5 9.5 5.5 0.5 0.5 6.5 0.5 
1.5 6.5 0.5 2.5 6.5 0.5 3.5 6.5 0.5 
4.5 6.5 0.5 5.5 6.5 0.5 6.5 6.5 0.5 
7.5 6.5 0.5 8.5 6.5 0.5 9.5 6.5 0.5 
0.5 7.5 0.5 1.5 7.5 0.5 2.5 7.5 0.5 
3.5 7.5 0.5 4.5 7.5 0.5 5.5 7.5 0.5 
6.5 7.5 0.5 7.5 7.5 0.5 8.5 7.5 0.5 
9.5 7.5 0.5 0.5 8.5 0.5 1.5 8.5 0.5 
2.5 8.5 0.5 3.5 8.5 0.5 4.5 8.5 0.5 
5.5 8.5 0.5 6.5 8.5 0.5 7.5 8.5 0.5 
[...]
POINT_DATA 2331
FIELD FieldData 2
DistanceToCenter 1 2331 float
8.66025 8.12404 7.68115 7.34847 7.14143 7.07107 7.14143 7.34847 7.68115 
8.12404 8.66025 8.12404 7.54983 7.07107 6.7082 6.48074 6.40312 6.48074 
6.7082 7.07107 7.54983 8.12404 7.68115 7.07107 6.55744 6.16441 5.91608 
5.83095 5.91608 6.16441 6.55744 7.07107 7.68115 7.34847 6.7082 6.16441 
5.74456 5.47723 5.38516 5.47723 5.74456 6.16441 6.7082 7.34847 7.14143 
6.48074 5.91608 5.47723 5.19615 5.09902 5.19615 5.47723 5.91608 6.48074 
7.14143 7.07107 6.40312 5.83095 5.38516 5.09902 5 5.09902 5.38516 
5.83095 6.40312 7.07107 7.14143 6.48074 5.91608 5.47723 5.19615 5.09902 
5.19615 5.47723 5.91608 6.48074 7.14143 7.34847 6.7082 6.16441 5.74456 
5.47723 5.38516 5.47723 5.74456 6.16441 6.7082 7.34847 7.68115 7.07107 
6.55744 6.16441 5.91608 5.83095 5.91608 6.16441 6.55744 7.07107 7.68115 
8.12404 7.54983 7.07107 6.7082 6.48074 6.40312 6.48074 6.7082 7.07107 
7.54983 8.12404 8.66025 8.12404 7.68115 7.34847 7.14143 7.07107 7.14143 
7.34847 7.68115 8.12404 8.66025 8.12404 7.54983 7.07107 6.7082 6.48074 
6.40312 6.48074 6.7082 7.07107 7.54983 8.12404 7.54983 6.9282 6.40312 
6 5.74456 5.65685 5.74456 6 6.40312 6.9282 7.54983 7.07107 
6.40312 5.83095 5.38516 5.09902 5 5.09902 5.38516 5.83095 6.40312 
7.07107 6.7082 6 5.38516 4.89898 4.58258 4.47214 4.58258 4.89898 
5.38516 6 6.7082 6.48074 5.74456 5.09902 4.58258 4.24264 4.12311 
4.24264 4.58258 5.09902 5.74456 6.48074 6.40312 5.65685 5 4.47214 
4.12311 4 4.12311 4.47214 5 5.65685 6.40312 6.48074 5.74456 
5.09902 4.58258 4.24264 4.12311 4.24264 4.58258 5.09902 5.74456 6.48074 
6.7082 6 5.38516 4.89898 4.58258 4.47214 4.58258 4.89898 5.38516 
6 6.7082 7.07107 6.40312 5.83095 5.38516 5.09902 5 5.09902 
5.38516 5.83095 6.40312 7.07107 7.54983 6.9282 6.40312 6 5.74456 
5.65685 5.74456 6 6.40312 6.9282 7.54983 8.12404 7.54983 7.07107 
6.7082 6.48074 6.40312 6.48074 6.7082 7.07107 7.54983 8.12404 7.68115 
7.07107 6.55744 6.16441 5.91608 5.83095 5.91608 6.16441 6.55744 7.07107 
7.68115 7.07107 6.40312 5.83095 5.38516 5.09902 5 5.09902 5.38516 
5.83095 6.40312 7.07107 6.55744 5.83095 5.19615 4.69042 4.3589 4.24264 
4.3589 4.69042 5.19615 5.83095 6.55744 6.16441 5.38516 4.69042 4.12311 
3.74166 3.60555 3.74166 4.12311 4.69042 5.38516 6.16441 5.91608 5.09902 
4.3589 3.74166 3.31662 3.16228 3.31662 3.74166 4.3589 5.09902 5.91608 
5.83095 5 4.24264 3.60555 3.16228 3 3.16228 3.60555 4.24264 
5 5.83095 5.91608 5.09902 4.3589 3.74166 3.31662 3.16228 3.31662 
3.74166 4.3589 5.09902 5.91608 6.16441 5.38516 4.69042 4.12311 3.74166 
3.60555 3.74166 4.12311 4.69042 5.38516 6.16441 6.55744 5.83095 5.19615 
4.69042 4.3589 4.24264 4.3589 4.69042 5.19615 5.83095 6.55744 7.07107 
6.40312 5.83095 5.38516 5.09902 5 5.09902 5.38516 5.83095 6.40312 
7.07107 7.68115 7.07107 6.55744 6.16441 5.91608 5.83095 5.91608 6.16441 
6.55744 7.07107 7.68115 7.34847 6.7082 6.16441 5.74456 5.47723 5.38516 
5.47723 5.74456 6.16441 6.7082 7.34847 6.7082 6 5.38516 4.89898 
4.58258 4.47214 4.58258 4.89898 5.38516 6 6.7082 6.16441 5.38516 
4.69042 4.12311 3.74166 3.60555 3.74166 4.12311 4.69042 5.38516 6.16441 
5.74456 4.89898 4.12311 3.4641 3 2.82843 3 3.4641 4.12311 
4.89898 5.74456 5.47723 4.58258 3.74166 3 2.44949 2.23607 2.44949 
3 3.74166 4.58258 5.47723 5.38516 4.47214 3.60555 2.82843 2.23607 
2 2.23607 2.82843 3.60555 4.47214 5.38516 5.47723 4.58258 3.74166 
3 2.44949 2.23607 2.44949 3 3.74166 4.58258 5.47723 5.74456 
4.89898 4.12311 3.4641 3 2.82843 3 3.4641 4.12311 4.89898 
5.74456 6.16441 5.38516 4.69042 4.12311 3.74166 3.60555 3.74166 4.12311 
4.69042 5.38516 6.16441 6.7082 6 5.38516 4.89898 4.58258 4.47214 
4.58258 4.89898 5.38516 6 6.7082 7.34847 6.7082 6.16441 5.74456 
5.47723 5.38516 5.47723 5.74456 6.16441 6.7082 7.34847 7.14143 6.48074 
5.91608 5.47723 5.19615 5.09902 5.19615 5.47723 5.91608 6.48074 7.14143 
6.48074 5.74456 5.09902 4.58258 4.24264 4.12311 4.24264 4.58258 5.09902 
5.74456 6.48074 5.91608 5.09902 4.3589 3.74166 3.31662 3.16228 3.31662 
3.74166 4.3589 5.09902 5.91608 5.47723 4.58258 3.74166 3 2.44949 
2.23607 2.44949 3 3.74166 4.58258 5.47723 5.19615 4.24264 3.31662 
2.44949 1.73205 1.41421 1.73205 2.44949 3.31662 4.24264 5.19615 5.09902 
4.12311 3.16228 2.23607 1.41421 1 1.41421 2.23607 3.16228 4.12311 
5.09902 5.19615 4.24264 3.31662 2.44949 1.73205 1.41421 1.73205 2.44949 
3.31662 4.24264 5.19615 5.47723 4.58258 3.74166 3 2.44949 2.23607 
2.44949 3 3.74166 4.58258 5.47723 5.91608 5.09902 4.3589 3.74166 
3.31662 3.16228 3.31662 3.74166 4.3589 5.09902 5.91608 6.48074 5.74456 
5.09902 4.58258 4.24264 4.12311 4.24264 4.58258 5.09902 5.74456 6.48074 
7.14143 6.48074 5.91608 5.47723 5.19615 5.09902 5.19615 5.47723 5.91608 
6.48074 7.14143 7.07107 6.40312 5.83095 5.38516 5.09902 5 5.09902 
5.38516 5.83095 6.40312 7.07107 6.40312 5.65685 5 4.47214 4.12311 
4 4.12311 4.47214 5 5.65685 6.40312 5.83095 5 4.24264 
3.60555 3.16228 3 3.16228 3.60555 4.24264 5 5.83095 5.38516 
4.47214 3.60555 2.82843 2.23607 2 2.23607 2.82843 3.60555 4.47214 
5.38516 5.09902 4.12311 3.16228 2.23607 1.41421 1 1.41421 2.23607 
3.16228 4.12311 5.09902 5 4 3 2 1 0 
1 2 3 4 5 5.09902 4.12311 3.16228 2.23607 
1.41421 1 1.41421 2.23607 3.16228 4.12311 5.09902 5.38516 4.47214 
3.60555 2.82843 2.23607 2 2.23607 2.82843 3.60555 4.47214 5.38516 
5.83095 5 4.24264 3.60555 3.16228 3 3.16228 3.60555 4.24264 
5 5.83095 6.40312 5.65685 5 4.47214 4.12311 4 4.12311 
4.47214 5 5.65685 6.40312 7.07107 6.40312 5.83095 5.38516 5.09902 
5 5.09902 5.38516 5.83095 6.40312 7.07107 7.14143 6.48074 5.91608 
5.47723 5.19615 5.09902 5.19615 5.47723 5.91608 6.48074 7.14143 6.48074 
5.74456 5.09902 4.58258 4.24264 4.12311 4.24264 4.58258 5.09902 5.74456 
6.48074 5.91608 5.09902 4.3589 3.74166 3.31662 3.16228 3.31662 3.74166 
4.3589 5.09902 5.91608 5.47723 4.58258 3.74166 3 2.44949 2.23607 
2.44949 3 3.74166 4.58258 5.47723 5.19615 4.24264 3.31662 2.44949 
1.73205 1.41421 1.73205 2.44949 3.31662 4.24264 5.19615 5.09902 4.12311 
3.16228 2.23607 1.41421 1 1.41421 2.23607 3.16228 4.12311 5.09902 
5.19615 4.24264 3.31662 2.44949 1.73205 1.41421 1.73205 2.44949 3.31662 
4.24264 5.19615 5.47723 4.58258 3.74166 3 2.44949 2.23607 2.44949 
3 3.74166 4.58258 5.47723 5.91608 5.09902 4.3589 3.74166 3.31662 
3.16228 3.31662 3.74166 4.3589 5.09902 5.91608 6.48074 5.74456 5.09902 
4.58258 4.24264 4.12311 4.24264 4.58258 5.09902 5.74456 6.48074 7.14143 
6.48074 5.91608 5.47723 5.19615 5.09902 5.19615 5.47723 5.91608 6.48074 
7.14143 7.34847 6.7082 6.16441 5.74456 5.47723 5.38516 5.47723 5.74456 
6.16441 6.7082 7.34847 6.7082 6 5.38516 4.89898 4.58258 4.47214 
4.58258 4.89898 5.38516 6 6.7082 6.16441 5.38516 4.69042 4.12311 
3.74166 3.60555 3.74166 4.12311 4.69042 5.38516 6.16441 5.74456 4.89898 
4.12311 3.4641 3 2.82843 3 3.4641 4.12311 4.89898 5.74456 
5.47723 4.58258 3.74166 3 2.44949 2.23607 2.44949 3 3.74166 
4.58258 5.47723 5.38516 4.47214 3.60555 2.82843 2.23607 2 2.23607 
2.82843 3.60555 4.47214 5.38516 5.47723 4.58258 3.74166 3 2.44949 
2.23607 2.44949 3 3.74166 4.58258 5.47723 5.74456 4.89898 4.12311 
3.4641 3 2.82843 3 3.4641 4.12311 4.89898 5.74456 6.16441 
5.38516 4.69042 4.12311 3.74166 3.60555 3.74166 4.12311 4.69042 5.38516 
6.16441 6.7082 6 5.38516 4.89898 4.58258 4.47214 4.58258 4.89898 
5.38516 6 6.7082 7.34847 6.7082 6.16441 5.74456 5.47723 5.38516 
5.47723 5.74456 6.16441 6.7082 7.34847 7.68115 7.07107 6.55744 6.16441 
5.91608 5.83095 5.91608 6.16441 6.55744 7.07107 7.68115 7.07107 6.40312 
5.83095 5.38516 5.09902 5 5.09902 5.38516 5.83095 6.40312 7.07107 
6.55744 5.83095 5.19615 4.69042 4.3589 4.24264 4.3589 4.69042 5.19615 
5.83095 6.55744 6.16441 5.38516 4.69042 4.12311 3.74166 3.60555 3.74166 
4.12311 4.69042 5.38516 6.16441 5.91608 5.09902 4.3589 3.74166 3.31662 
3.16228 3.31662 3.74166 4.3589 5.09902 5.91608 5.83095 5 4.24264 
3.60555 3.16228 3 3.16228 3.60555 4.24264 5 5.83095 5.91608 
5.09902 4.3589 3.74166 3.31662 3.16228 3.31662 3.74166 4.3589 5.09902 
5.91608 6.16441 5.38516 4.69042 4.12311 3.74166 3.60555 3.74166 4.12311 
4.69042 5.38516 6.16441 6.55744 5.83095 5.19615 4.69042 4.3589 4.24264 
4.3589 4.69042 5.19615 5.83095 6.55744 7.07107 6.40312 5.83095 5.38516 
5.09902 5 5.09902 5.38516 5.83095 6.40312 7.07107 7.68115 7.07107 
6.55744 6.16441 5.91608 5.83095 5.91608 6.16441 6.55744 7.07107 7.68115 
8.12404 7.54983 7.07107 6.7082 6.48074 6.40312 6.48074 6.7082 7.07107 
7.54983 8.12404 7.54983 6.9282 6.40312 6 5.74456 5.65685 5.74456 
6 6.40312 6.9282 7.54983 7.07107 6.40312 5.83095 5.38516 5.09902 
5 5.09902 5.38516 5.83095 6.40312 7.07107 6.7082 6 5.38516 
4.89898 4.58258 4.47214 4.58258 4.89898 5.38516 6 6.7082 6.48074 
5.74456 5.09902 4.58258 4.24264 4.12311 4.24264 4.58258 5.09902 5.74456 
6.48074 6.40312 5.65685 5 4.47214 4.12311 4 4.12311 4.47214 
5 5.65685 6.40312 6.48074 5.74456 5.09902 4.58258 4.24264 4.12311 
4.24264 4.58258 5.09902 5.74456 6.48074 6.7082 6 5.38516 4.89898 
4.58258 4.47214 4.58258 4.89898 5.38516 6 6.7082 7.07107 6.40312 
5.83095 5.38516 5.09902 5 5.09902 5.38516 5.83095 6.40312 7.07107 
7.54983 6.9282 6.40312 6 5.74456 5.65685 5.74456 6 6.40312 
6.9282 7.54983 8.12404 7.54983 7.07107 6.7082 6.48074 6.40312 6.48074 
6.7082 7.07107 7.54983 8.12404 8.66025 8.12404 7.68115 7.34847 7.14143 
7.07107 7.14143 7.34847 7.68115 8.12404 8.66025 8.12404 7.54983 7.07107 
6.7082 6.48074 6.40312 6.48074 6.7082 7.07107 7.54983 8.12404 7.68115 
7.07107 6.55744 6.16441 5.91608 5.83095 5.91608 6.16441 6.55744 7.07107 
7.68115 7.34847 6.7082 6.16441 5.74456 5.47723 5.38516 5.47723 5.74456 
6.16441 6.7082 7.34847 7.14143 6.48074 5.91608 5.47723 5.19615 5.09902 
5.19615 5.47723 5.91608 6.48074 7.14143 7.07107 6.40312 5.83095 5.38516 
5.09902 5 5.09902 5.38516 5.83095 6.40312 7.07107 7.14143 6.48074 
5.91608 5.47723 5.19615 5.09902 5.19615 5.47723 5.91608 6.48074 7.14143 
7.34847 6.7082 6.16441 5.74456 5.47723 5.38516 5.47723 5.74456 6.16441 
6.7082 7.34847 7.68115 7.07107 6.55744 6.16441 5.91608 5.83095 5.91608 
6.16441 6.55744 7.07107 7.68115 8.12404 7.54983 7.07107 6.7082 6.48074 
6.40312 6.48074 6.7082 7.07107 7.54983 8.12404 8.66025 8.12404 7.68115 
7.34847 7.14143 7.07107 7.14143 7.34847 7.68115 8.12404 8.66025 7.79423 
7.26292 6.8374 6.53835 6.38357 6.38357 6.53835 6.8374 7.26292 7.79423 
7.26292 6.68954 6.22495 5.89491 5.72276 5.72276 5.89491 6.22495 6.68954 
7.26292 6.8374 6.22495 5.72276 5.3619 5.17204 5.17204 5.3619 5.72276 
6.22495 6.8374 6.53835 5.89491 5.3619 4.97494 4.7697 4.7697 4.97494 
5.3619 5.89491 6.53835 6.38357 5.72276 5.17204 4.7697 4.55522 4.55522 
4.7697 5.17204 5.72276 6.38357 6.38357 5.72276 5.17204 4.7697 4.55522 
4.55522 4.7697 5.17204 5.72276 6.38357 6.53835 5.89491 5.3619 4.97494 
4.7697 4.7697 4.97494 5.3619 5.89491 6.53835 6.8374 6.22495 5.72276 
5.3619 5.17204 5.17204 5.3619 5.72276 6.22495 6.8374 7.26292 6.68954 
6.22495 5.89491 5.72276 5.72276 5.89491 6.22495 6.68954 7.26292 7.79423 
7.26292 6.8374 6.53835 6.38357 6.38357 6.53835 6.8374 7.26292 7.79423 
7.26292 6.68954 6.22495 5.89491 5.72276 5.72276 5.89491 6.22495 6.68954 
7.26292 6.68954 6.06218 5.54527 5.17204 4.97494 4.97494 5.17204 5.54527 
6.06218 6.68954 6.22495 5.54527 4.97494 4.55522 4.33013 4.33013 4.55522 
4.97494 5.54527 6.22495 5.89491 5.17204 4.55522 4.09268 3.84057 3.84057 
4.09268 4.55522 5.17204 5.89491 5.72276 4.97494 4.33013 3.84057 3.57071 
3.57071 3.84057 4.33013 4.97494 5.72276 5.72276 4.97494 4.33013 3.84057 
3.57071 3.57071 3.84057 4.33013 4.97494 5.72276 5.89491 5.17204 4.55522 
4.09268 3.84057 3.84057 4.09268 4.55522 5.17204 5.89491 6.22495 5.54527 
4.97494 4.55522 4.33013 4.33013 4.55522 4.97494 5.54527 6.22495 6.68954 
6.06218 5.54527 5.17204 4.97494 4.97494 5.17204 5.54527 6.06218 6.68954 
7.26292 6.68954 6.22495 5.89491 5.72276 5.72276 5.89491 6.22495 6.68954 
7.26292 6.8374 6.22495 5.72276 5.3619 5.17204 5.17204 5.3619 5.72276 
6.22495 6.8374 6.22495 5.54527 4.97494 4.55522 4.33013 4.33013 4.55522 
4.97494 5.54527 6.22495 5.72276 4.97494 4.33013 3.84057 3.57071 3.57071 
3.84057 4.33013 4.97494 5.72276 5.3619 4.55522 3.84057 3.27872 2.95804 
2.95804 3.27872 3.84057 4.55522 5.3619 5.17204 4.33013 3.57071 2.95804 
2.59808 2.59808 2.95804 3.57071 4.33013 5.17204 5.17204 4.33013 3.57071 
2.95804 2.59808 2.59808 2.95804 3.57071 4.33013 5.17204 5.3619 4.55522 
3.84057 3.27872 2.95804 2.95804 3.27872 3.84057 4.55522 5.3619 5.72276 
4.97494 4.33013 3.84057 3.57071 3.57071 3.84057 4.33013 4.97494 5.72276 
6.22495 5.54527 4.97494 4.55522 4.33013 4.33013 4.55522 4.97494 5.54527 
6.22495 6.8374 6.22495 5.72276 5.3619 5.17204 5.17204 5.3619 5.72276 
6.22495 6.8374 6.53835 5.89491 5.3619 4.97494 4.7697 4.7697 4.97494 
5.3619 5.89491 6.53835 5.89491 5.17204 4.55522 4.09268 3.84057 3.84057 
4.09268 4.55522 5.17204 5.89491 5.3619 4.55522 3.84057 3.27872 2.95804 
2.95804 3.27872 3.84057 4.55522 5.3619 4.97494 4.09268 3.27872 2.59808 
2.17945 2.17945 2.59808 3.27872 4.09268 4.97494 4.7697 3.84057 2.95804 
2.17945 1.65831 1.65831 2.17945 2.95804 3.84057 4.7697 4.7697 3.84057 
2.95804 2.17945 1.65831 1.65831 2.17945 2.95804 3.84057 4.7697 4.97494 
4.09268 3.27872 2.59808 2.17945 2.17945 2.59808 3.27872 4.09268 4.97494 
5.3619 4.55522 3.84057 3.27872 2.95804 2.95804 3.27872 3.84057 4.55522 
5.3619 5.89491 5.17204 4.55522 4.09268 3.84057 3.84057 4.09268 4.55522 
5.17204 5.89491 6.53835 5.89491 5.3619 4.97494 4.7697 4.7697 4.97494 
5.3619 5.89491 6.53835 6.38357 5.72276 5.17204 4.7697 4.55522 4.55522 
4.7697 5.17204 5.72276 6.38357 5.72276 4.97494 4.33013 3.84057 3.57071 
3.57071 3.84057 4.33013 4.97494 5.72276 5.17204 4.33013 3.57071 2.95804 
2.59808 2.59808 2.95804 3.57071 4.33013 5.17204 4.7697 3.84057 2.95804 
2.17945 1.65831 1.65831 2.17945 2.95804 3.84057 4.7697 4.55522 3.57071 
2.59808 1.65831 0.866025 0.866025 1.65831 2.59808 3.57071 4.55522 4.55522 
3.57071 2.59808 1.65831 0.866025 0.866025 1.65831 2.59808 3.57071 4.55522 
4.7697 3.84057 2.95804 2.17945 1.65831 1.65831 2.17945 2.95804 3.84057 
4.7697 5.17204 4.33013 3.57071 2.95804 2.59808 2.59808 2.95804 3.57071 
4.33013 5.17204 5.72276 4.97494 4.33013 3.84057 3.57071 3.57071 3.84057 
4.33013 4.97494 5.72276 6.38357 5.72276 5.17204 4.7697 4.55522 4.55522 
4.7697 5.17204 5.72276 6.38357 6.38357 5.72276 5.17204 4.7697 4.55522 
4.55522 4.7697 5.17204 5.72276 6.38357 5.72276 4.97494 4.33013 3.84057 
3.57071 3.57071 3.84057 4.33013 4.97494 5.72276 5.17204 4.33013 3.57071 
2.95804 2.59808 2.59808 2.95804 3.57071 4.33013 5.17204 4.7697 3.84057 
2.95804 2.17945 1.65831 1.65831 2.17945 2.95804 3.84057 4.7697 4.55522 
3.57071 2.59808 1.65831 0.866025 0.866025 1.65831 2.59808 3.57071 4.55522 
4.55522 3.57071 2.59808 1.65831 0.866025 0.866025 1.65831 2.59808 3.57071 
4.55522 4.7697 3.84057 2.95804 2.17945 1.65831 1.65831 2.17945 2.95804 
3.84057 4.7697 5.17204 4.33013 3.57071 2.95804 2.59808 2.59808 2.95804 
3.57071 4.33013 5.17204 5.72276 4.97494 4.33013 3.84057 3.57071 3.57071 
3.84057 4.33013 4.97494 5.72276 6.38357 5.72276 5.17204 4.7697 4.55522 
4.55522 4.7697 5.17204 5.72276 6.38357 6.53835 5.89491 5.3619 4.97494 
4.7697 4.7697 4.97494 5.3619 5.89491 6.53835 5.89491 5.17204 4.55522 
4.09268 3.84057 3.84057 4.09268 4.55522 5.17204 5.89491 5.3619 4.55522 
3.84057 3.27872 2.95804 2.95804 3.27872 3.84057 4.55522 5.3619 4.97494 
4.09268 3.27872 2.59808 2.17945 2.17945 2.59808 3.27872 4.09268 4.97494 
4.7697 3.84057 2.95804 2.17945 1.65831 1.65831 2.17945 2.95804 3.84057 
4.7697 4.7697 3.84057 2.95804 2.17945 1.65831 1.65831 2.17945 2.95804 
3.84057 4.7697 4.97494 4.09268 3.27872 2.59808 2.17945 2.17945 2.59808 
3.27872 4.09268 4.97494 5.3619 4.55522 3.84057 3.27872 2.95804 2.95804 
3.27872 3.84057 4.55522 5.3619 5.89491 5.17204 4.55522 4.09268 3.84057 
3.84057 4.09268 4.55522 5.17204 5.89491 6.53835 5.89491 5.3619 4.97494 
4.7697 4.7697 4.97494 5.3619 5.89491 6.53835 6.8374 6.22495 5.72276 
5.3619 5.17204 5.17204 5.3619 5.72276 6.22495 6.8374 6.22495 5.54527 
4.97494 4.55522 4.33013 4.33013 4.55522 4.97494 5.54527 6.22495 5.72276 
4.97494 4.33013 3.84057 3.57071 3.57071 3.84057 4.33013 4.97494 5.72276 
5.3619 4.55522 3.84057 3.27872 2.95804 2.95804 3.27872 3.84057 4.55522 
5.3619 5.17204 4.33013 3.57071 2.95804 2.59808 2.59808 2.95804 3.57071 
4.33013 5.17204 5.17204 4.33013 3.57071 2.95804 2.59808 2.59808 2.95804 
3.57071 4.33013 5.17204 5.3619 4.55522 3.84057 3.27872 2.95804 2.95804 
3.27872 3.84057 4.55522 5.3619 5.72276 4.97494 4.33013 3.84057 3.57071 
3.57071 3.84057 4.33013 4.97494 5.72276 6.22495 5.54527 4.97494 4.55522 
4.33013 4.33013 4.55522 4.97494 5.54527 6.22495 6.8374 6.22495 5.72276 
5.3619 5.17204 5.17204 5.3619 5.72276 6.22495 6.8374 7.26292 6.68954 
6.22495 5.89491 5.72276 5.72276 5.89491 6.22495 6.68954 7.26292 6.68954 
6.06218 5.54527 5.17204 4.97494 4.97494 5.17204 5.54527 6.06218 6.68954 
6.22495 5.54527 4.97494 4.55522 4.33013 4.33013 4.55522 4.97494 5.54527 
6.22495 5.89491 5.17204 4.55522 4.09268 3.84057 3.84057 4.09268 4.55522 
5.17204 5.89491 5.72276 4.97494 4.33013 3.84057 3.57071 3.57071 3.84057 
4.33013 4.97494 5.72276 5.72276 4.97494 4.33013 3.84057 3.57071 3.57071 
3.84057 4.33013 4.97494 5.72276 5.89491 5.17204 4.55522 4.09268 3.84057 
3.84057 4.09268 4.55522 5.17204 5.89491 6.22495 5.54527 4.97494 4.55522 
4.33013 4.33013 4.55522 4.97494 5.54527 6.22495 6.68954 6.06218 5.54527 
5.17204 4.97494 4.97494 5.17204 5.54527 6.06218 6.68954 7.26292 6.68954 
6.22495 5.89491 5.72276 5.72276 5.89491 6.22495 6.68954 7.26292 7.79423 
7.26292 6.8374 6.53835 6.38357 6.38357 6.53835 6.8374 7.26292 7.79423 
7.26292 6.68954 6.22495 5.89491 5.72276 5.72276 5.89491 6.22495 6.68954 
7.26292 6.8374 6.22495 5.72276 5.3619 5.17204 5.17204 5.3619 5.72276 
6.22495 6.8374 6.53835 5.89491 5.3619 4.97494 4.7697 4.7697 4.97494 
5.3619 5.89491 6.53835 6.38357 5.72276 5.17204 4.7697 4.55522 4.55522 
4.7697 5.17204 5.72276 6.38357 6.38357 5.72276 5.17204 4.7697 4.55522 
4.55522 4.7697 5.17204 5.72276 6.38357 6.53835 5.89491 5.3619 4.97494 
4.7697 4.7697 4.97494 5.3619 5.89491 6.53835 6.8374 6.22495 5.72276 
5.3619 5.17204 5.17204 5.3619 5.72276 6.22495 6.8374 7.26292 6.68954 
6.22495 5.89491 5.72276 5.72276 5.89491 6.22495 6.68954 7.26292 7.79423 
7.26292 6.8374 6.53835 6.38357 6.38357 6.53835 6.8374 7.26292 7.79423 

Polynomial 1 2331 float
1 2 3 4 5 6 7 8 9 
10 11 2 3 4 5 6 7 8 
9 10 11 12 3 4 5 6 7 
8 9 10 11 12 13 4 5 6 
7 8 9 10 11 12 13 14 5 
6 7 8 9 10 11 12 13 14 
15 6 7 8 9 10 11 12 13 
14 15 16 7 8 9 10 11 12 
13 14 15 16 17 8 9 10 11 
12 13 14 15 16 17 18 9 10 
11 12 13 14 15 16 17 18 19 
10 11 12 13 14 15 16 17 18 
19 20 11 12 13 14 15 16 17 
18 19 20 21 2 3 4 5 6 
7 8 9 10 11 12 3 4 5 
6 7 8 9 10 11 12 13 4 
5 6 7 8 9 10 11 12 13 
14 5 6 7 8 9 10 11 12 
13 14 15 6 7 8 9 10 11 
12 13 14 15 16 7 8 9 10 
11 12 13 14 15 16 17 8 9 
10 11 12 13 14 15 16 17 18 
9 10 11 12 13 14 15 16 17 
18 19 10 11 12 13 14 15 16 
17 18 19 20 11 12 13 14 15 
16 17 18 19 20 21 12 13 14 
15 16 17 18 19 20 21 22 3 
4 5 6 7 8 9 10 11 12 
13 4 5 6 7 8 9 10 11 
12 13 14 5 6 7 8 9 10 
11 12 13 14 15 6 7 8 9 
10 11 12 13 14 15 16 7 8 
9 10 11 12 13 14 15 16 17 
8 9 10 11 12 13 14 15 16 
17 18 9 10 11 12 13 14 15 
16 17 18 19 10 11 12 13 14 
15 16 17 18 19 20 11 12 13 
14 15 16 17 18 19 20 21 12 
13 14 15 16 17 18 19 20 21 
22 13 14 15 16 17 18 19 20 
21 22 23 4 5 6 7 8 9 
10 11 12 13 14 5 6 7 8 
9 10 11 12 13 14 15 6 7 
8 9 10 11 12 13 14 15 16 
7 8 9 10 11 12 13 14 15 
16 17 8 9 10 11 12 13 14 
15 16 17 18 9 10 11 12 13 
14 15 16 17 18 19 10 11 12 
13 14 15 16 17 18 19 20 11 
12 13 14 15 16 17 18 19 20 
21 12 13 14 15 16 17 18 19 
20 21 22 13 14 15 16 17 18 
19 20 21 22 23 14 15 16 17 
18 19 20 21 22 23 24 5 6 
7 8 9 10 11 12 13 14 15 
6 7 8 9 10 11 12 13 14 
15 16 7 8 9 10 11 12 13 
14 15 16 17 8 9 10 11 12 
13 14 15 16 17 18 9 10 11 
12 13 14 15 16 17 18 19 10 
11 12 13 14 15 16 17 18 19 
20 11 12 13 14 15 16 17 18 
19 20 21 12 13 14 15 16 17 
18 19 20 21 22 13 14 15 16 
17 18 19 20 21 22 23 14 15 
16 17 18 19 20 21 22 23 24 
15 16 17 18 19 20 21 22 23 
24 25 6 7 8 9 10 11 12 
13 14 15 16 7 8 9 10 11 
12 13 14 15 16 17 8 9 10 