# vtk DataFile Version 5.1
vtk output
ASCII

DATASET UNSTRUCTURED_GRID
POINTS 393 float
1 0 1
3.5 1 1
3.5 0 1
1 1 0.5
2 0 1
0.5 0.5 1
0 0 0
4 0.5 0
4 1 0
4 0 0.5
4 0 1
0 1 1
2.5 1 0.5
0.5 0 0
3 0 1
3 1 0.5
1 0 0
3.5 1 0.5
1.5 0 0
0.5 0 1
0.5 1 1
2 0 0
2 1 0.5
0 0.5 1
4 0.5 0.5
2.5 0 0
3 1 1
0 0 1
3 0 0
4 0 0
4 0.5 1
4 1 1
3.5 0 0
2 1 1
1 1 1
0 1 0
0 0.5 0
2.5 1 1
1.5 1 1
0.5 1 0
0.5 0.5 0
1 1 0
1 0.5 0
1.5 1 0
1.5 0.5 0
2 1 0
2 0.5 0
2.5 1 0
2.5 0.5 0
3 1 0
3 0.5 0
3.5 1 0
3.5 0.5 0
1.5 1 0.5
0 0 0.5
2.5 0 1
1.5 0 1
4 1 0.5
0.5 0 0.5
1 0.5 1
1 0 0.5
1.5 0.5 1
1.5 0 0.5
2 0.5 1
2 0 0.5
2.5 0.5 1
2.5 0 0.5
3 0.5 1
3 0 0.5
3.5 0.5 1
3.5 0 0.5
0 1 0.5
0 0.5 0.5
0.5 1 0.5
0.5 0.5 0.5
1 0.5 0.5
1.5 0.5 0.5
2 0.5 0.5
2.5 0.5 0.5
3 0.5 0.5
3.5 0.5 0.5
0 0 0.25
0 0.25 0.5
0 0.25 0.25
0.25 0 0.25
0.25 0 0.5
0.25 0.25 0.5
0 0.5 0.25
0 0.25 0
0.25 0.5 0.25
0.25 0.5 0
0.25 0.25 0
0.25 0 0
0.5 0 0.25
0.5 0.25 0
0.5 0.25 0.25
0.5 0.25 0.5
0.25 0.5 0.5
0.5 0.5 0.25
0.75 0 0
0.75 0 0.25
0.75 0.25 0
0.75 0.25 0.5
0.75 0.5 0.5
0.75 0.5 0.25
1 0 0.25
0.75 0 0.5
1 0.25 0.25
1 0.25 0.5
1 0.5 0.25
0.75 0.5 0
1 0.25 0
1.25 0 0.25
1.25 0 0.5
1.25 0.25 0.5
1.25 0.5 0.25
1.25 0.5 0
1.25 0.25 0
1.25 0 0
1.5 0 0.25
1.5 0.25 0
1.5 0.25 0.25
1.5 0.25 0.5
1.25 0.5 0.5
1.5 0.5 0.25
1.75 0 0
1.75 0 0.25
1.75 0.25 0
1.75 0.25 0.5
1.75 0.5 0.5
1.75 0.5 0.25
2 0 0.25
1.75 0 0.5
2 0.25 0.25
2 0.25 0.5
2 0.5 0.25
1.75 0.5 0
2 0.25 0
2.25 0 0.25
2.25 0 0.5
2.25 0.25 0.5
2.25 0.5 0.25
2.25 0.5 0
2.25 0.25 0
2.25 0 0
2.5 0 0.25
2.5 0.25 0
2.5 0.25 0.25
2.5 0.25 0.5
2.25 0.5 0.5
2.5 0.5 0.25
2.75 0 0
2.75 0 0.25
2.75 0.25 0
2.75 0.25 0.5
2.75 0.5 0.5
2.75 0.5 0.25
3 0 0.25
2.75 0 0.5
3 0.25 0.25
3 0.25 0.5
3 0.5 0.25
2.75 0.5 0
3 0.25 0
3.25 0 0.25
3.25 0 0.5
3.25 0.25 0.5
3.25 0.5 0.25
3.25 0.5 0
3.25 0.25 0
3.25 0 0
3.5 0 0.25
3.5 0.25 0
3.5 0.25 0.25
3.5 0.25 0.5
3.25 0.5 0.5
3.5 0.5 0.25
3.75 0 0
3.75 0 0.25
3.75 0.25 0
3.75 0.25 0.5
3.75 0.5 0.5
3.75 0.5 0.25
4 0 0.25
3.75 0 0.5
4 0.25 0.25
4 0.25 0.5
4 0.5 0.25
3.75 0.5 0
4 0.25 0
0 0.75 0.25
0 0.75 0
0.25 0.75 0
0 0.75 0.5
0 1 0.25
0.25 0.75 0.5
0.25 1 0.5
0.25 1 0.25
0.5 0.75 0.25
0.5 0.75 0.5
0.5 1 0.25
0.25 1 0
0.5 0.75 0
0.75 0.75 0.5
0.75 1 0.25
0.75 1 0
0.75 0.75 0
1 0.75 0
1 0.75 0.25
1 0.75 0.5
0.75 1 0.5
1 1 0.25
1.25 0.75 0
1.25 0.75 0.5
1.25 1 0.5
1.25 1 0.25
1.5 0.75 0.25
1.5 0.75 0.5
1.5 1 0.25
1.25 1 0
1.5 0.75 0
1.75 0.75 0.5
1.75 1 0.25
1.75 1 0
1.75 0.75 0
2 0.75 0
2 0.75 0.25
2 0.75 0.5
1.75 1 0.5
2 1 0.25
2.25 0.75 0
2.25 0.75 0.5
2.25 1 0.5
2.25 1 0.25
2.5 0.75 0.25
2.5 0.75 0.5
2.5 1 0.25
2.25 1 0
2.5 0.75 0
2.75 0.75 0.5
2.75 1 0.25
2.75 1 0
2.75 0.75 0
3 0.75 0
3 0.75 0.25
3 0.75 0.5
2.75 1 0.5
3 1 0.25
3.25 0.75 0
3.25 0.75 0.5
3.25 1 0.5
3.25 1 0.25
3.5 0.75 0.25
3.5 0.75 0.5
3.5 1 0.25
3.25 1 0
3.5 0.75 0
3.75 0.75 0.5
3.75 1 0.25
3.75 1 0
3.75 0.75 0
4 0.75 0
4 0.75 0.25
4 0.75 0.5
3.75 1 0.5
4 1 0.25
0 0 0.75
0 0.25 0.75
0.25 0 0.75
0 0.25 1
0 0.5 0.75
0.25 0.25 1
0.25 0.5 1
0.25 0.5 0.75
0.5 0 0.75
0.25 0 1
0.5 0.25 0.75
0.5 0.25 1
0.5 0.5 0.75
0.75 0 0.75
0.75 0 1
0.75 0.25 1
0.75 0.5 0.75
1 0 0.75
1 0.25 0.75
1 0.25 1
0.75 0.5 1
1 0.5 0.75
1.25 0 0.75
1.25 0.25 1
1.25 0.5 1
1.25 0.5 0.75
1.5 0 0.75
1.25 0 1
1.5 0.25 0.75
1.5 0.25 1
1.5 0.5 0.75
1.75 0 0.75
1.75 0 1
1.75 0.25 1
1.75 0.5 0.75
2 0 0.75
2 0.25 0.75
2 0.25 1
1.75 0.5 1
2 0.5 0.75
2.25 0 0.75
2.25 0.25 1
2.25 0.5 1
2.25 0.5 0.75
2.5 0 0.75
2.25 0 1
2.5 0.25 0.75
2.5 0.25 1
2.5 0.5 0.75
2.75 0 0.75
2.75 0 1
2.75 0.25 1
2.75 0.5 0.75
3 0 0.75
3 0.25 0.75
3 0.25 1
2.75 0.5 1
3 0.5 0.75
3.25 0 0.75
3.25 0.25 1
3.25 0.5 1
3.25 0.5 0.75
3.5 0 0.75
3.25 0 1
3.5 0.25 0.75
3.5 0.25 1
3.5 0.5 0.75
3.75 0 0.75
3.75 0 1
3.75 0.25 1
3.75 0.5 0.75
4 0 0.75
4 0.25 0.75
4 0.25 1
3.75 0.5 1
4 0.5 0.75
0 0.75 1
0 0.75 0.75
0.25 0.75 1
0 1 0.75
0.25 1 0.75
0.5 0.75 0.75
0.5 0.75 1
0.25 1 1
0.5 1 0.75
0.75 0.75 1
0.75 1 1
0.75 1 0.75
1 0.75 0.75
1 0.75 1
1 1 0.75
1.25 0.75 1
1.25 1 0.75
1.5 0.75 0.75
1.5 0.75 1
1.25 1 1
1.5 1 0.75
1.75 0.75 1
1.75 1 1
1.75 1 0.75
2 0.75 0.75
2 0.75 1
2 1 0.75
2.25 0.75 1
2.25 1 0.75
2.5 0.75 0.75
2.5 0.75 1
2.25 1 1
2.5 1 0.75
2.75 0.75 1
2.75 1 1
2.75 1 0.75
3 0.75 0.75
3 0.75 1
3 1 0.75
3.25 0.75 1
3.25 1 0.75
3.5 0.75 0.75
3.5 0.75 1
3.25 1 1
3.5 1 0.75
3.75 0.75 1
3.75 1 1
3.75 1 0.75
4 0.75 0.75
4 0.75 1
4 1 0.75

CELLS 161 1600
OFFSETS vtktypeint64
0 10 20 30 40 50 60 70 80 90 100 110 120 130 140 150 160 170 180 190 200 210 220 230 240 250 260 270 280 290 300 310 320 330 340 350 360 370 380 390 400 410 420 430 440 450 460 470 480 490 500 510 520 530 540 550 560 570 580 590 600 610 620 630 640 650 660 670 680 690 700 710 720 730 740 750 760 770 780 790 800 810 820 830 840 850 860 870 880 890 900 910 920 930 940 950 960 970 980 990 1000 1010 1020 1030 1040 1050 1060 1070 1080 1090 1100 1110 1120 1130 1140 1150 1160 1170 1180 1190 1200 1210 1220 1230 1240 1250 1260 1270 1280 1290 1300 1310 1320 1330 1340 1350 1360 1370 1380 1390 1400 1410 1420 1430 1440 1450 1460 1470 1480 1490 1500 1510 1520 1530 1540 1550 1560 1570 1580 1590 1600 
CONNECTIVITY vtktypeint64
6 54 72 58 81 82 83 84 85 86 
72 36 6 40 87 88 83 89 90 91 
6 13 58 40 92 93 84 91 94 95 
58 74 72 40 96 97 86 95 98 89 
13 58 40 16 93 95 94 99 100 101 
58 74 40 75 96 98 95 102 103 104 
16 60 58 75 105 106 100 107 108 102 
75 42 40 16 109 110 104 107 111 101 
16 60 75 62 105 108 107 112 113 114 
75 42 16 44 109 111 107 115 116 117 
16 18 62 44 118 119 112 117 120 121 
62 76 75 44 122 123 114 121 124 115 
18 62 44 21 119 121 120 125 126 127 
62 76 44 77 122 124 121 128 129 130 
21 64 62 77 131 132 126 133 134 128 
77 46 44 21 135 136 130 133 137 127 
21 64 77 66 131 134 133 138 139 140 
77 46 21 48 135 137 133 141 142 143 
21 25 66 48 144 145 138 143 146 147 
66 78 77 48 148 149 140 147 150 141 
25 66 48 28 145 147 146 151 152 153 
66 78 48 79 148 150 147 154 155 156 
28 68 66 79 157 158 152 159 160 154 
79 50 48 28 161 162 156 159 163 153 
28 68 79 70 157 160 159 164 165 166 
79 50 28 52 161 163 159 167 168 169 
28 32 70 52 170 171 164 169 172 173 
70 80 79 52 174 175 166 173 176 167 
32 70 52 29 171 173 172 177 178 179 
70 80 52 24 174 176 173 180 181 182 
29 9 70 24 183 184 178 185 186 180 
24 7 52 29 187 188 182 185 189 179 
36 72 35 40 87 190 191 90 89 192 
72 71 35 73 193 194 190 195 196 197 
40 74 72 73 98 97 89 198 199 195 
73 39 35 40 200 201 197 198 202 192 
40 74 73 75 98 199 198 104 103 203 
73 39 40 41 200 202 198 204 205 206 
40 42 75 41 110 109 104 206 207 208 
75 3 73 41 209 210 203 208 211 204 
42 75 41 44 109 208 207 116 115 212 
75 3 41 53 209 211 208 213 214 215 
44 76 75 53 124 123 115 216 217 213 
53 43 41 44 218 219 215 216 220 212 
44 76 53 77 124 217 216 130 129 221 
53 43 44 45 218 220 216 222 223 224 
44 46 77 45 136 135 130 224 225 226 
77 22 53 45 227 228 221 226 229 222 
46 77 45 48 135 226 225 142 141 230 
77 22 45 12 227 229 226 231 232 233 
48 78 77 12 150 149 141 234 235 231 
12 47 45 48 236 237 233 234 238 230 
48 78 12 79 150 235 234 156 155 239 
12 47 48 49 236 238 234 240 241 242 
48 50 79 49 162 161 156 242 243 244 
79 15 12 49 245 246 239 244 247 240 
50 79 49 52 161 244 243 168 167 248 
79 15 49 17 245 247 244 249 250 251 
52 80 79 17 176 175 167 252 253 249 
17 51 49 52 254 255 251 252 256 248 
52 80 17 24 176 253 252 182 181 257 
17 51 52 8 254 256 252 258 259 260 
52 7 24 8 188 187 182 260 261 262 
24 57 17 8 263 264 257 262 265 258 
54 27 72 58 266 267 82 85 268 86 
27 23 72 5 269 270 267 271 272 273 
58 19 27 5 274 275 268 276 277 271 
5 74 72 58 278 97 273 276 96 86 
58 19 5 0 274 277 276 279 280 281 
5 74 58 75 278 96 276 282 103 102 
58 60 0 75 106 283 279 102 108 284 
0 59 5 75 285 286 281 284 287 282 
60 0 75 62 283 284 108 113 288 114 
0 59 75 61 285 287 284 289 290 291 
62 56 0 61 292 293 288 294 295 289 
61 76 75 62 296 123 291 294 122 114 
62 56 61 4 292 295 294 297 298 299 
61 76 62 77 296 122 294 300 129 128 
62 64 4 77 132 301 297 128 134 302 
4 63 61 77 303 304 299 302 305 300 
64 4 77 66 301 302 134 139 306 140 
4 63 77 65 303 305 302 307 308 309 
66 55 4 65 310 311 306 312 313 307 
65 78 77 66 314 149 309 312 148 140 
66 55 65 14 310 313 312 315 316 317 
65 78 66 79 314 148 312 318 155 154 
66 68 14 79 158 319 315 154 160 320 
14 67 65 79 321 322 317 320 323 318 
68 14 79 70 319 320 160 165 324 166 
14 67 79 69 321 323 320 325 326 327 
70 2 14 69 328 329 324 330 331 325 
69 80 79 70 332 175 327 330 174 166 
70 2 69 10 328 331 330 333 334 335 
69 80 70 24 332 174 330 336 181 180 
70 9 10 24 184 337 333 180 186 338 
10 30 69 24 339 340 335 338 341 336 
72 23 11 5 270 342 343 273 272 344 
11 71 72 73 345 193 343 346 196 195 
72 74 5 73 97 278 273 195 199 347 
5 20 11 73 348 349 344 347 350 346 
74 5 73 75 278 347 199 103 282 203 
5 20 73 34 348 350 347 351 352 353 
75 59 5 34 287 286 282 354 355 351 
34 3 73 75 356 210 353 354 209 203 
75 59 34 61 287 355 354 291 290 357 
34 3 75 53 356 209 354 358 214 213 
75 76 61 53 123 296 291 213 217 359 
61 38 34 53 360 361 357 359 362 358 
76 61 53 77 296 359 217 129 300 221 
61 38 53 33 360 362 359 363 364 365 
77 63 61 33 305 304 300 366 367 363 
33 22 53 77 368 228 365 366 227 221 
77 63 33 65 305 367 366 309 308 369 
33 22 77 12 368 227 366 370 232 231 
77 78 65 12 149 314 309 231 235 371 
65 37 33 12 372 373 369 371 374 370 
78 65 12 79 314 371 235 155 318 239 
65 37 12 26 372 374 371 375 376 377 
79 67 65 26 323 322 318 378 379 375 
26 15 12 79 380 246 377 378 245 239 
79 67 26 69 323 379 378 327 326 381 
26 15 79 17 380 245 378 382 250 249 
79 80 69 17 175 332 327 249 253 383 
69 1 26 17 384 385 381 383 386 382 
80 69 17 24 332 383 253 181 336 257 
69 1 17 31 384 386 383 387 388 389 
24 30 69 31 341 340 336 390 391 387 
31 57 17 24 392 264 389 390 263 257 
72 6 58 40 83 84 86 89 91 95 
72 58 27 5 86 268 267 273 276 271 
40 72 35 73 89 190 192 198 195 197 
58 40 16 75 95 101 100 102 104 107 
72 5 11 73 273 344 343 195 347 346 
5 58 0 75 276 279 281 282 102 284 
73 40 75 41 198 104 203 204 206 208 
75 16 62 44 107 112 114 115 117 121 
5 73 75 34 347 203 282 351 353 354 
0 75 62 61 284 114 288 289 291 294 
75 41 44 53 208 212 115 213 215 216 
62 44 21 77 121 127 126 128 130 133 
34 75 61 53 354 291 357 358 213 359 
61 62 4 77 294 297 299 300 128 302 
53 44 77 45 216 130 221 222 224 226 
77 21 66 48 133 138 140 141 143 147 
61 53 77 33 359 221 300 363 365 366 
4 77 66 65 302 140 306 307 309 312 
77 45 48 12 226 230 141 231 233 234 
66 48 28 79 147 153 152 154 156 159 
33 77 65 12 366 309 369 370 231 371 
65 66 14 79 312 315 317 318 154 320 
12 48 79 49 234 156 239 240 242 244 
79 28 70 52 159 164 166 167 169 173 
65 12 79 26 371 239 318 375 377 378 
14 79 70 69 320 166 324 325 327 330 
79 49 52 17 244 248 167 249 251 252 
70 52 29 24 173 179 178 180 182 185 
26 79 69 17 378 327 381 382 249 383 
69 70 10 24 330 333 335 336 180 338 
17 52 24 8 252 182 257 258 260 262 
69 17 24 31 383 257 336 387 389 390 
CELL_TYPES 160
24 24 24 24 24 24 24 24 24 24 24 24 24 24 24 24 24 24 24 24 24 24 24 24 24 24 24 24 24 24 24 24 24 24 24 24 24 24 24 24 24 24 24 24 24 24 24 24 24 24 24 24 24 24 24 24 24 24 24 24 24 24 24 24 24 24 24 24 24 24 24 24 24 24 24 24 24 24 24 24 24 24 24 24 24 24 24 24 24 24 24 24 24 24 24 24 24 24 24 24 24 24 24 24 24 24 24 24 24 24 24 24 24 24 24 24 24 24 24 24 24 24 24 24 24 24 24 24 24 24 24 24 24 24 24 24 24 24 24 24 24 24 24 24 24 24 24 24 24 24 24 24 24 24 24 24 24 24 24 24 

POINT_DATA 393
SCALARS weights float 1
LOOKUP_TABLE default
20.8333 4.16667 4.16667 8.33333 20.8333 41.6667 10.4167 4.16666 10.4167 4.16666 10.4167 10.4167 41.6667 4.16667 20.8333 8.33333 20.8333 41.6667 4.16667 4.16667 4.16667 20.8333 8.33334 4.16667 41.6667 4.16667 20.8333 10.4167 20.8333 10.4167 4.16666 10.4167 4.16667 20.8333 20.8333 10.4167 4.16667 4.16667 4.16667 4.16667 41.6667 20.8333 8.33333 4.16667 41.6667 20.8333 8.33334 4.16667 41.6667 20.8333 8.33333 4.16667 41.6667 41.6667 4.16667 4.16667 4.16667 4.16666 41.6667 8.33333 8.33333 41.6667 41.6667 8.33333 8.33334 41.6667 41.6667 8.33333 8.33333 41.6667 41.6667 4.16667 41.6667 41.6667 16.6667 83.3333 16.6667 83.3334 16.6667 83.3334 16.6667 2.08333 4.16667 8.33333 8.33333 4.16667 16.6667 4.16667 2.08333 16.6667 4.16667 8.33333 2.08333 4.16667 4.16667 16.6667 8.33333 8.33333 8.33333 2.08333 8.33333 8.33333 16.6667 8.33333 16.6667 4.16667 4.16667 16.6667 8.33333 8.33333 4.16667 4.16667 8.33333 4.16667 16.6667 16.6667 4.16667 8.33333 2.08333 4.16667 4.16667 16.6667 8.33333 8.33333 8.33333 2.08333 8.33333 8.33333 16.6667 8.33333 16.6667 4.16667 4.16667 16.6667 8.33334 8.33334 4.16667 4.16667 8.33334 4.16667 16.6667 16.6667 4.16667 8.33334 2.08333 4.16667 4.16667 16.6667 8.33333 8.33333 8.33333 2.08334 8.33334 8.33334 16.6667 8.33334 16.6667 4.16667 4.16667 16.6667 8.33333 8.33333 4.16666 4.16667 8.33334 4.16667 16.6667 16.6667 4.16667 8.33334 2.08333 4.16667 4.16667 16.6667 8.33334 8.33333 8.33334 2.08334 8.33334 8.33334 16.6667 8.33335 16.6667 2.08333 4.16666 8.33333 4.16666 4.16666 4.16666 2.08333 8.33333 2.08333 8.33333 4.16667 2.08333 16.6667 4.16667 8.33333 16.6667 8.33333 4.16667 2.08333 4.16667 16.6667 8.33333 2.08333 8.33333 4.16667 16.6667 8.33333 4.16667 4.16667 8.33333 16.6667 4.16667 8.33333 16.6667 8.33333 4.16667 2.08333 4.16667 16.6667 8.33333 2.08333 8.33333 4.16667 16.6667 8.33334 4.16667 4.16667 8.33334 16.6667 4.16667 8.33334 16.6667 8.33334 4.16667 2.08333 4.16667 16.6667 8.33333 2.08333 8.33334 4.16667 16.6667 8.33333 4.16666 4.16667 8.33333 16.6667 4.16667 8.33333 16.6667 8.33334 4.16667 2.08333 4.16667 16.6667 8.33334 2.08334 8.33334 2.08333 8.33334 4.16666 4.16666 2.08333 2.08333 8.33333 8.33333 2.08333 4.16667 8.33333 4.16667 16.6667 4.16667 2.08333 16.6667 4.16667 8.33333 8.33333 2.08333 8.33333 16.6667 4.16667 16.6667 4.16667 4.16667 8.33333 8.33333 8.33333 4.16667 16.6667 4.16667 2.08333 16.6667 4.16667 8.33333 8.33333 2.08333 8.33333 16.6667 4.16667 16.6667 4.16667 4.16667 8.33333 8.33334 8.33334 4.16667 16.6667 4.16667 2.08333 16.6667 4.16667 8.33334 8.33334 2.08333 8.33333 16.6667 4.16667 16.6667 4.16667 4.16666 8.33333 8.33333 8.33333 4.16667 16.6667 4.16667 2.08333 16.6667 4.16667 8.33334 8.33334 2.08334 8.33334 16.6667 2.08333 8.33334 2.08333 4.16666 4.16666 2.08333 8.33333 8.33333 2.08333 8.33333 16.6667 4.16667 2.08333 4.16667 8.33333 2.08333 8.33333 16.6667 4.16667 4.16667 8.33333 8.33333 16.6667 4.16667 2.08333 4.16667 8.33333 2.08333 8.33333 16.6667 4.16667 4.16667 8.33334 8.33334 16.6667 4.16667 2.08333 4.16667 8.33334 2.08333 8.33333 16.6667 4.16667 4.16667 8.33333 8.33333 16.6667 4.16667 2.08333 4.16667 8.33334 2.08334 8.33334 8.33334 2.08333 2.08333 
VECTORS u float
-0.345284 -0.325416 0.0235884  -0.558997 -2.60037 -0.000562787  -1.37601 -2.17488 -0.000799  0.201595 -0.525523 0.0004161  -0.730176 -0.980118 0.00749183  0.00512516 -0.129052 0.000130177  0 0 0  -1.17944 -2.7981 0.000137277  -0.770976 -3.01311 0.00137599  -1.58969 -2.586 -0.000981182  -1.59004 -2.58751 -0.00128472  0 0 0  -0.152934 -1.76105 0.000608861  -0.175339 -0.0969759 -0.0338861  -1.15922 -1.76639 -6.41942e-05  -0.349319 -2.18275 0.00107253  -0.345268 -0.325655 -0.0234331  -0.559762 -2.60186 0.000722528  -0.529448 -0.626134 -0.0145165  -0.175581 -0.0972462 0.0334761  0.158432 -0.191438 -0.0382348  -0.729766 -0.979434 -0.00822634  0.019228 -1.33469 0.000671566  0 0 0  -1.18087 -2.80075 -0.000163406  -0.940873 -1.3616 -0.00416073  -0.349606 -2.18388 -0.00265867  0 0 0  -1.15801 -1.76532 -0.00185427  -1.59012 -2.58617 -0.000300485  -1.18052 -2.79922 -0.000626028  -0.771838 -3.01414 -0.000490963  -1.37455 -2.17366 -0.000663672  0.0217743 -1.33144 -0.0125875  0.207224 -0.515149 -0.028654  0 0 0  0 0 0  -0.151457 -1.75759 -0.00680083  0.151501 -0.90895 -0.0201045  0.158607 -0.19117 0.0387931  0.0049246 -0.128883 -0.000769407  0.207451 -0.514577 0.0298121  -0.0556509 -0.409825 0.00160201  0.152124 -0.908336 0.0215384  -0.179717 -0.763698 0.00220411  0.0230801 -1.33113 0.0138049  -0.347931 -1.15108 0.00244083  -0.150029 -1.75665 0.00876405  -0.542175 -1.55881 0.00197708  -0.349457 -2.18198 0.00436798  -0.751537 -1.97185 0.0014818  -0.557894 -2.59867 0.00202244  -0.964729 -2.38741 0.00094345  0.146338 -0.917962 0.000638187  0 0 0  -0.942247 -1.36269 0.00288522  -0.530088 -0.626741 0.0141702  -0.771275 -3.01161 0.000403225  -0.181469 -0.113212 -0.000248224  -0.0560406 -0.410181 -0.00123119  -0.354962 -0.332715 -7.98404e-05  -0.180057 -0.764348 -0.00139105  -0.537526 -0.632455 -9.36687e-05  -0.348889 -1.15183 -0.00217211  -0.734836 -0.980753 -0.000393271  -0.543837 -1.5599 -0.00158155  -0.943733 -1.36466 -0.000459611  -0.752753 -1.97277 -0.00111949  -1.159 -1.76443 -0.000710726  -0.966479 -2.38885 -0.000923038  -1.37478 -2.17786 -0.000655919  0 0 0  0 0 0  0.155577 -0.207266 0.00035131  -0.00235164 -0.14208 -8.6695e-05  -0.0642236 -0.421939 0.000176787  -0.187077 -0.768956 0.00020647  -0.35272 -1.15652 7.52807e-05  -0.54523 -1.5603 0.000157475  -0.751695 -1.97521 0.000124931  -0.966574 -2.38765 1.06692e-05  0 0 0  0 0 0  0 0 0  -0.087853 -0.0362045 -0.0095247  -0.090815 -0.0392007 -0.000184208  -0.0332311 -0.0366824 -0.000142813  0 0 0  0 0 0  0.003535 -0.0471274 -0.000665396  0.00451702 -0.0344975 0.00097733  -0.0316364 -0.025945 -0.0143543  -0.0919116 -0.0288706 -0.0268594  -0.180362 -0.10807 -0.0175007  -0.0728138 -0.109282 -0.0179009  -0.078383 -0.120634 -0.00879903  -0.0804324 -0.125083 -0.000160664  0.00540882 -0.0474598 -6.23763e-05  -0.000927567 -0.138244 -0.000399247  -0.257368 -0.197937 -0.0298844  -0.26487 -0.207304 -0.0158431  -0.126043 -0.227967 -0.0148914  -0.135885 -0.23971 -6.58929e-05  -0.0246127 -0.269342 -1.71363e-05  -0.0229011 -0.266337 -3.07262e-05  -0.352837 -0.330192 -0.0121377  -0.267364 -0.21155 -0.000142276  -0.199068 -0.374959 -0.00589301  -0.201689 -0.377135 1.90735e-05  -0.0623962 -0.417849 0.000661999  -0.0163563 -0.257208 0.00070816  -0.191048 -0.36856 -0.0113943  -0.441344 -0.472271 -0.00938113  -0.443529 -0.473901 -5.26905e-05  -0.27518 -0.532908 0.000101149  -0.116916 -0.586192 0.000961542  -0.110874 -0.579853 0.002107  -0.266398 -0.525485 -0.0088327  -0.434638 -0.468267 -0.018283  -0.535395 -0.629211 -0.00758922  -0.349569 -0.696198 -0.0062284  -0.355165 -0.699949 -0.00312966  -0.356815 -0.701755 5.64456e-05  -0.119403 -0.588816 0.000244856  -0.185246 -0.767209 0.0012278  -0.627192 -0.797146 -0.0113812  -0.632309 -0.799915 -0.00600302  -0.439516 -0.877393 -0.00443538  -0.446028 -0.88122 -3.19779e-05  -0.265271 -0.958698 0.00017482  -0.263751 -0.957256 0.00138175  -0.7335 -0.979782 -0.00441025  -0.633951 -0.801263 -0.000264078  -0.539383 -1.06852 -0.00174591  -0.540992 -1.06937 -0.000146896  -0.351382 -1.15389 0.00123739  -0.259723 -0.953822 0.00249876  -0.535359 -1.06653 -0.00312476  -0.836815 -1.16845 -0.00316496  -0.83794 -1.16914 -0.000507683  -0.640078 -1.26423 -0.000147551  -0.445129 -1.35511 0.00103185  -0.442375 -1.35291 0.00220535  -0.635807 -1.26134 -0.00217133  -0.833917 -1.16727 -0.00588773  -0.943061 -1.36244 -0.00239122  -0.739722 -1.46107 -0.00118752  -0.7419 -1.46221 -0.000638813  -0.742633 -1.46312 -0.000203758  -0.446477 -1.35633 0.000124812  -0.544433 -1.55935 0.00111651  -1.04871 -1.56117 -0.00290542  -1.05034 -1.562 -0.00191242  -0.845843 -1.66424 -0.00055601  -0.847674 -1.66543 -0.000271261  -0.647319 -1.76659 0.000150621  -0.646881 -1.76575 0.00124297  -1.15873 -1.76411 -0.0012081  -1.05082 -1.56255 -0.000675559  -0.954458 -1.86956 -0.000425801  -0.954789 -1.86998 -0.000299066  -0.752129 -1.97287 0.000821561  -0.645765 -1.76448 0.00189063  -0.953464 -1.86898 -0.000258197  -1.26669 -1.96915 -0.000587165  -1.26712 -1.96981 -0.000726968  -1.0627 -2.07662 -0.000291824  -0.858404 -2.18027 0.000404328  -0.85788 -2.1794 0.00108141  -1.06124 -2.07469 -0.000166267  -1.26616 -1.96868 -0.000863338  -1.37481 -2.17441 -0.000807196  -1.16933 -2.28058 -1.2914e-05  -1.16999 -2.28132 -8.15392e-05  -1.17051 -2.28216 -0.000324547  -0.859096 -2.18101 8.83937e-05  -0.965859 -2.38691 0.000419885  -1.48243 -2.37953 -0.000706765  -1.48247 -2.38033 -0.00103101  -1.27719 -2.48676 -0.000209552  -1.27777 -2.48761 -0.000382245  -1.0735 -2.59393 -5.68628e-05  -1.07303 -2.59336 0.000308782  -1.58975 -2.58525 -0.000825405  -1.48237 -2.38134 -0.000804663  -1.38475 -2.69238 -0.000618592  -1.38515 -2.69285 -0.000574052  -1.17994 -2.7985 -9.97782e-05  -1.0725 -2.5928 0.000324736  -1.38452 -2.69196 -0.00032188  0 0 0  0 0 0  0.0413975 -0.0524125 0.0164439  0 0 0  0 0 0  0.0380937 -0.0628485 5.91874e-05  0.079491 -0.0954739 0.000130177  0.082219 -0.0899138 0.0113416  0.0736317 -0.166259 0.00925869  0.0705996 -0.168397 0.000102103  0.153695 -0.202952 0.0184957  0.0924505 -0.0814453 0.0326774  0.0756713 -0.155172 0.0201216  0.0805957 -0.306997 0.000197291  0.192325 -0.349565 0.0164146  0.197876 -0.337925 0.0347091  0.0869999 -0.292899 0.0176418  0.0733358 -0.456448 0.0160192  0.0679966 -0.465817 0.00814432  0.0659043 -0.468999 0.000302911  0.192239 -0.353003 0.000341833  0.203044 -0.522184 0.0148101  0.0381631 -0.638583 0.0142422  0.0313077 -0.647925 0.000400066  0.184739 -0.715187 0.000569344  0.185668 -0.712666 0.0132966  -0.0200423 -0.837186 0.00593692  -0.021715 -0.838865 0.000419319  0.148167 -0.914403 0.0110455  0.190547 -0.705391 0.0255769  -0.0155997 -0.831486 0.0119573  -0.0885413 -1.03851 0.000395298  0.0907896 -1.12209 0.00872609  0.0946825 -1.11721 0.0176015  -0.0834233 -1.03197 0.00991736  -0.163514 -1.23719 0.0082827  -0.166403 -1.2409 0.00435695  -0.16753 -1.24244 0.000384033  0.0897328 -1.12369 0.000624537  0.0204833 -1.33329 0.00722179  -0.251776 -1.44575 0.00689986  -0.255088 -1.44927 0.00042659  -0.0624099 -1.54693 0.000727952  -0.061691 -1.54577 0.00612393  -0.348862 -1.6572 0.00278208  -0.349726 -1.65802 0.000485718  -0.151652 -1.75887 0.00480923  -0.0595059 -1.54304 0.0110618  -0.347055 -1.65512 0.00541992  -0.448774 -1.86804 0.000510991  -0.248465 -1.97101 0.00356576  -0.247263 -1.96932 0.00652256  -0.447119 -1.86517 0.00423934  -0.550956 -2.07499 0.00310068  -0.551326 -2.0763 0.00190032  -0.551378 -2.07703 0.000611544  -0.248999 -1.97184 0.000951707  -0.34919 -2.18204 0.00267017  -0.655841 -2.28417 0.00224879  -0.656546 -2.2856 0.000463724  -0.453094 -2.39239 0.000866294  -0.453015 -2.39161 0.00210518  -0.762482 -2.49272 0.000760704  -0.763256 -2.49347 0.000391126  -0.558319 -2.59953 0.00150117  -0.452772 -2.39047 0.00307496  -0.761892 -2.49183 0.00136479  -0.869732 -2.70037 0.000274897  -0.664499 -2.80622 0.00101602  -0.663961 -2.80589 0.00144679  -0.868465 -2.69873 0.000899622  -0.975505 -2.90447 0.000776665  -0.976064 -2.90469 0.000696868  -0.976194 -2.90529 0.000108302  -0.665108 -2.8064 0.000641882  -0.77108 -3.01166 0.00102246  0 0 0  0 0 0  -0.0879796 -0.0361771 0.00919634  0 0 0  0 0 0  -0.0315214 -0.0260801 0.0140728  0.0045853 -0.0346777 -0.00117087  0.00352749 -0.0471594 0.000499964  -0.180488 -0.108179 0.0170349  -0.0920378 -0.029095 0.026545  -0.0784366 -0.120795 0.00839096  -0.0729264 -0.109419 0.0175495  -0.000919074 -0.13836 0.000105917  -0.264915 -0.207413 0.0155949  -0.257612 -0.198054 0.0296835  -0.126343 -0.228034 0.014739  -0.0229222 -0.266505 -7.40886e-05  -0.352921 -0.330241 0.0121271  -0.199125 -0.375064 0.0059849  -0.191307 -0.368657 0.0115249  -0.016601 -0.257488 -0.00072068  -0.0625103 -0.418057 -0.000355422  -0.441544 -0.472346 0.00933987  -0.26667 -0.525893 0.00911391  -0.111263 -0.580345 -0.00153226  -0.117035 -0.586452 -0.000404894  -0.535723 -0.629434 0.00734127  -0.435063 -0.46855 0.0182186  -0.355336 -0.700236 0.00330722  -0.350078 -0.696841 0.00642407  -0.185447 -0.76751 -0.000668824  -0.632653 -0.800229 0.0055477  -0.627776 -0.797888 0.0108987  -0.440153 -0.878068 0.00444615  -0.264024 -0.957591 -0.000983655  -0.733926 -0.980119 0.00367045  -0.539778 -1.06889 0.00142223  -0.536111 -1.06725 0.00290346  -0.260369 -0.95455 -0.00203341  -0.351848 -1.15429 -0.00103658  -0.837425 -1.1689 0.00218111  -0.636844 -1.26226 0.00189924  -0.443594 -1.35374 -0.00191146  -0.445702 -1.35553 -0.000765622  -0.943787 -1.36294 0.00125557  -0.834998 -1.16813 0.00491369  -0.742677 -1.46269 0.000238121  -0.741156 -1.46219 0.000786185  -0.545161 -1.55979 -0.000760794  -1.05104 -1.56258 0.000483692  -1.05004 -1.56233 0.00141597  -0.847238 -1.66531 -4.11272e-06  -0.647644 -1.76617 -0.000929952  -1.15937 -1.76464 -0.000391006  -0.955061 -1.86993 -0.000280678  -0.954772 -1.86994 -0.000398457  -0.647129 -1.76541 -0.00154632  -0.752866 -1.97328 -0.000466049  -1.26743 -1.96975 -0.000939369  -1.06273 -2.07572 -0.000543773  -0.859259 -2.18053 -0.000874579  -0.859269 -2.18074 -0.000250816  -1.37559 -2.17509 -0.000616431  -1.26758 -1.96966 -0.000643492  -1.17083 -2.28195 -0.000608861  -1.1709 -2.28187 -0.000725865  -0.966676 -2.38761 -0.000359356  -1.48289 -2.38108 -0.000517249  -1.48318 -2.38089 -0.000889957  -1.27827 -2.48796 -0.000730395  -1.07357 -2.59409 -0.000466883  -1.59 -2.58598 -0.000965893  -1.38524 -2.69305 -0.000524104  -1.38517 -2.69307 -0.00083679  -1.07377 -2.59405 -0.00057745  -1.18043 -2.79918 -0.000325322  0 0 0  0 0 0  0.0413974 -0.0526158 -0.0163583  0 0 0  0.0821569 -0.089982 -0.0110779  0.0736812 -0.166303 -0.00918961  0.0756107 -0.15543 -0.0199957  0.0923481 -0.0816239 -0.032444  0.153685 -0.203014 -0.0179487  0.0868185 -0.293261 -0.0172589  0.197646 -0.33833 -0.0339607  0.192358 -0.349737 -0.0156686  0.0679071 -0.466021 -0.00748438  0.072944 -0.456909 -0.0153193  0.202992 -0.522454 -0.0138417  0.0377268 -0.639154 -0.0133358  0.185529 -0.712975 -0.0121026  -0.0203046 -0.837492 -0.0050332  -0.0161197 -0.832089 -0.0110079  0.190096 -0.705987 -0.0242934  0.147915 -0.914681 -0.0097366  -0.0841849 -1.03259 -0.0090453  0.0938642 -1.11772 -0.0162486  0.0903893 -1.12229 -0.0074755  -0.16695 -1.24125 -0.00362116  -0.164485 -1.23785 -0.00747627  0.0199199 -1.33359 -0.00588912  -0.252984 -1.44659 -0.00603354  -0.0623469 -1.54616 -0.00464416  -0.349404 -1.65771 -0.00179398  -0.348428 -1.65607 -0.00431776  -0.0608268 -1.54374 -0.00949693  -0.152247 -1.7593 -0.00311923  -0.448304 -1.86618 -0.00316107  -0.248233 -1.97058 -0.00469923  -0.248951 -1.97164 -0.00166351  -0.551862 -2.07687 -0.000690758  -0.551935 -2.07612 -0.00205243  -0.349661 -2.1828 -0.000773668  -0.657015 -2.28572 -0.00135404  -0.453439 -2.39246 -0.000493407  -0.763333 -2.49352 1.30534e-05  -0.763261 -2.49336 -0.000642955  -0.453549 -2.39225 -0.00138712  -0.559045 -2.60038 -3.18885e-05  -0.869613 -2.7001 -0.000377417  -0.665067 -2.80722 -0.000166357  -0.665176 -2.80686 0.000244737  -0.976474 -2.90537 -0.000434875  -0.976397 -2.90567 -0.000472665  -0.771584 -3.01226 -0.000133336  
