# vtk DataFile Version 5.1
vtk output
ASCII

DATASET UNSTRUCTURED_GRID
POINTS 2417 float
3.5 1 0.5
2.75 1 0.5
4 0.75 1
0.5 0 1
1.5 0.5 1
0.75 0.5 1
0.25 0.25 1
0 0 0
3.75 1 0.5
3.25 1 0.5
0.25 0.5 1
4 0 0.5
1 0.5 1
4 0.75 0.5
4 0.25 0.5
0.25 0 0
1.5 0 1
1 0 1
1.5 0.75 1
0.5 0 0
1 1 0.75
0.25 1 1
0.75 0 0
2.25 0 1
2.25 0.5 1
0.75 1 0.25
1 0 0
1.25 0.5 1
1.25 1 0.5
4 0.25 0.25
1.25 0 0
2.5 0 1
3.5 0.5 1
2.5 0.75 1
1.5 0 0
4 0 0.25
4 0.25 0
1.25 1 0.75
1.75 0 0
2.5 0.5 1
0.75 1 0.75
2.25 0.75 1
2 0 0
2 0.5 1
2 0.75 1
1 0.75 1
2.25 0 0
3.5 0 1
0.5 0.75 1
3.5 0.75 1
2.5 0 0
1 1 0.5
0 1 0.5
4 0.5 0
2.75 0 0
0 0.5 1
0 1 1
0 1 0.75
3 0 0
3 0.5 1
0.75 1 0.5
3 0.75 1
3.25 0 0
2.5 1 0.5
3 1 0.5
0.5 1 0.75
3.5 0 0
4 0 0
0.25 0 1
3.75 0 0
2 1 0.5
1.5 1 0.5
3.25 0.5 1
0 0.25 0
2.25 1 0.5
1.75 1 0.5
4 0.5 0.5
0.25 0.25 0
0.5 1 0.5
0.5 0.25 0
4 0.25 1
0.75 0.25 0
0 1 0.25
1 0.25 0
4 0.5 0.25
1.25 0.25 0
0.5 1 0.25
1.5 0.25 0
4 0.5 1
1.75 0.25 0
3.75 0 1
2 0.25 0
4 1 0
2.25 0.25 0
2.5 0.25 0
4 0.75 0
2.75 0.25 0
0.5 0.5 1
3 0.25 0
1 1 0.25
3.25 0.25 0
3.5 0.25 0
0 0.25 1
3.75 0.25 0
3.25 0.75 1
0 0.5 0
4 0.25 0.75
3.75 0.5 1
1.25 1 0.25
0.25 0.5 0
1.5 1 0.25
0.5 0.5 0
1.75 1 0.25
0.75 0.5 0
2 1 0.25
1 0.5 0
2.25 1 0.25
1.25 0.5 0
2.5 1 0.25
1.5 0.5 0
2.75 1 0.25
1.75 0.5 0
3 1 0.25
2 0.5 0
3.25 1 0.25
2.25 0.5 0
3.5 1 0.25
2.5 0.5 0
3.75 1 0.25
2.75 0.5 0
1.75 0.5 1
3 0.5 0
4 0.75 0.25
3.25 0.5 0
3 0 1
3.5 0.5 0
2 0 1
3.75 0.5 0
0 1 0
0 0.75 0
4 0.5 0.75
3.75 0.75 1
0.25 1 0
0.25 0.75 0
0.5 1 0
0.5 0.75 0
0.75 1 0
0.75 0.75 0
1 1 0
1 0.75 0
1.25 1 0
1.25 0.75 0
1.5 1 0
1.5 0.75 0
1.75 1 0
1.75 0.75 0
2 1 0
2 0.75 0
2.25 1 0
2.25 0.75 0
2.5 1 0
2.5 0.75 0
2.75 1 0
2.75 0.75 0
3 1 0
3 0.75 0
3.25 1 0
3.25 0.75 0
3.5 1 0
3.5 0.75 0
3.75 1 0
3.75 0.75 0
2.75 0.5 1
0 0 0.25
4 0 1
4 0 0.75
1.25 0.75 1
0.25 0 0.25
1.5 1 0.75
0.5 0 0.25
1.75 1 0.75
0.75 0 0.25
2 1 0.75
1 0 0.25
2.25 1 0.75
1.25 0 0.25
2.5 1 0.75
1.5 0 0.25
2.75 1 0.75
1.75 0 0.25
3 1 0.75
2 0 0.25
3.25 1 0.75
2.25 0 0.25
3.5 1 0.75
2.5 0 0.25
3.75 1 0.75
2.75 0 0.25
3 0 0.25
4 0.75 0.75
3.25 0 0.25
3.5 0 0.25
4 1 1
3.75 0 0.25
2.75 0.75 1
0 0.25 0.25
1.75 0 1
0.25 0.25 0.25
0.5 0.25 0.25
0.75 0.25 0.25
1 0.25 0.25
1.25 0.25 0.25
1.5 0.25 0.25
1.75 0.25 0.25
2 0.25 0.25
2.25 0.25 0.25
2.5 0.25 0.25
2.75 0.25 0.25
3 0.25 0.25
3.25 0.25 0.25
3.5 0.25 0.25
3.75 0.25 0.25
0 0.5 0.25
4 1 0.25
0.25 0.5 0.25
0.5 0.5 0.25
0.75 0.5 0.25
1 0.5 0.25
1.25 0.5 0.25
1.5 0.5 0.25
1.75 0.5 0.25
2 0.5 0.25
2.25 0.5 0.25
2.5 0.5 0.25
2.75 0.5 0.25
3 0.5 0.25
3.25 0.5 0.25
3.5 0.5 0.25
3.75 0.5 0.25
0 0.75 0.25
0.25 1 0.25
0.25 0.75 0.25
0.5 0.75 0.25
0.75 0.75 0.25
1 0.75 0.25
1.25 0.75 0.25
1.5 0.75 0.25
1.75 0.75 0.25
2 0.75 0.25
2.25 0.75 0.25
2.5 0.75 0.25
2.75 0.75 0.25
3 0.75 0.25
3.25 0.75 0.25
3.5 0.75 0.25
3.75 0.75 0.25
0 0 0.5
3.25 0 1
2.75 0 1
0.25 0.75 1
0.25 0 0.5
0.5 1 1
0.5 0 0.5
0.75 1 1
0.75 0 0.5
1 1 1
1 0 0.5
1.25 1 1
1.25 0 0.5
1.5 1 1
1.5 0 0.5
1.75 1 1
1.75 0 0.5
2 1 1
2 0 0.5
2.25 1 1
2.25 0 0.5
2.5 1 1
2.5 0 0.5
2.75 1 1
2.75 0 0.5
3 1 1
3 0 0.5
3.25 1 1
3.25 0 0.5
3.5 1 1
3.5 0 0.5
3.75 1 1
3.75 0 0.5
1.75 0.75 1
0 0.25 0.5
0 0 1
0.25 0.25 0.5
0.5 0.25 0.5
0.75 0.25 0.5
1 0.25 0.5
1.25 0.25 0.5
1.5 0.25 0.5
1.75 0.25 0.5
2 0.25 0.5
2.25 0.25 0.5
2.5 0.25 0.5
2.75 0.25 0.5
3 0.25 0.5
3.25 0.25 0.5
3.5 0.25 0.5
3.75 0.25 0.5
0 0.5 0.5
4 1 0.5
0.25 0.5 0.5
0.5 0.5 0.5
0.75 0.5 0.5
1 0.5 0.5
1.25 0.5 0.5
1.5 0.5 0.5
1.75 0.5 0.5
2 0.5 0.5
2.25 0.5 0.5
2.5 0.5 0.5
2.75 0.5 0.5
3 0.5 0.5
3.25 0.5 0.5
3.5 0.5 0.5
3.75 0.5 0.5
0 0.75 0.5
0.25 1 0.5
0.25 0.75 0.5
0.5 0.75 0.5
0.75 0.75 0.5
1 0.75 0.5
1.25 0.75 0.5
1.5 0.75 0.5
1.75 0.75 0.5
2 0.75 0.5
2.25 0.75 0.5
2.5 0.75 0.5
2.75 0.75 0.5
3 0.75 0.5
3.25 0.75 0.5
3.5 0.75 0.5
3.75 0.75 0.5
0 0 0.75
1.25 0 1
0.75 0 1
0 0.75 1
0.25 0 0.75
0.5 0.25 1
0.5 0 0.75
0.75 0.25 1
0.75 0 0.75
1 0.25 1
1 0 0.75
1.25 0.25 1
1.25 0 0.75
1.5 0.25 1
1.5 0 0.75
1.75 0.25 1
1.75 0 0.75
2 0.25 1
2 0 0.75
2.25 0.25 1
2.25 0 0.75
2.5 0.25 1
2.5 0 0.75
2.75 0.25 1
2.75 0 0.75
3 0.25 1
3 0 0.75
3.25 0.25 1
3.25 0 0.75
3.5 0.25 1
3.5 0 0.75
3.75 0.25 1
3.75 0 0.75
0.75 0.75 1
0 0.25 0.75
0.25 0.25 0.75
0.5 0.25 0.75
0.75 0.25 0.75
1 0.25 0.75
1.25 0.25 0.75
1.5 0.25 0.75
1.75 0.25 0.75
2 0.25 0.75
2.25 0.25 0.75
2.5 0.25 0.75
2.75 0.25 0.75
3 0.25 0.75
3.25 0.25 0.75
3.5 0.25 0.75
3.75 0.25 0.75
0 0.5 0.75
4 1 0.75
0.25 0.5 0.75
0.5 0.5 0.75
0.75 0.5 0.75
1 0.5 0.75
1.25 0.5 0.75
1.5 0.5 0.75
1.75 0.5 0.75
2 0.5 0.75
2.25 0.5 0.75
2.5 0.5 0.75
2.75 0.5 0.75
3 0.5 0.75
3.25 0.5 0.75
3.5 0.5 0.75
3.75 0.5 0.75
0 0.75 0.75
0.25 1 0.75
0.25 0.75 0.75
0.5 0.75 0.75
0.75 0.75 0.75
1 0.75 0.75
1.25 0.75 0.75
1.5 0.75 0.75
1.75 0.75 0.75
2 0.75 0.75
2.25 0.75 0.75
2.5 0.75 0.75
2.75 0.75 0.75
3 0.75 0.75
3.25 0.75 0.75
3.5 0.75 0.75
3.75 0.75 0.75
0 0 0.125
0 0.125 0.25
0 0.125 0.125
0.125 0 0.125
0.125 0 0.25
0.125 0.125 0.25
0 0.25 0.125
0 0.125 0
0.125 0.25 0.125
0.125 0.25 0
0.125 0.125 0
0.125 0 0
0.25 0 0.125
0.25 0.125 0
0.25 0.125 0.125
0.25 0.125 0.25
0.125 0.25 0.25
0.25 0.25 0.125
0.375 0 0
0.375 0 0.125
0.375 0.125 0
0.375 0.125 0.25
0.375 0.25 0.25
0.375 0.25 0.125
0.5 0 0.125
0.375 0 0.25
0.5 0.125 0.125
0.5 0.125 0.25
0.5 0.25 0.125
0.375 0.25 0
0.5 0.125 0
0.625 0 0.125
0.625 0 0.25
0.625 0.125 0.25
0.625 0.25 0.125
0.625 0.25 0
0.625 0.125 0
0.625 0 0
0.75 0 0.125
0.75 0.125 0
0.75 0.125 0.125
0.75 0.125 0.25
0.625 0.25 0.25
0.75 0.25 0.125
0.875 0 0
0.875 0 0.125
0.875 0.125 0
0.875 0.125 0.25
0.875 0.25 0.25
0.875 0.25 0.125
1 0 0.125
0.875 0 0.25
1 0.125 0.125
1 0.125 0.25
1 0.25 0.125
0.875 0.25 0
1 0.125 0
1.125 0 0.125
1.125 0 0.25
1.125 0.125 0.25
1.125 0.25 0.125
1.125 0.25 0
1.125 0.125 0
1.125 0 0
1.25 0 0.125
1.25 0.125 0
1.25 0.125 0.125
1.25 0.125 0.25
1.125 0.25 0.25
1.25 0.25 0.125
1.375 0 0
1.375 0 0.125
1.375 0.125 0
1.375 0.125 0.25
1.375 0.25 0.25
1.375 0.25 0.125
1.5 0 0.125
1.375 0 0.25
1.5 0.125 0.125
1.5 0.125 0.25
1.5 0.25 0.125
1.375 0.25 0
1.5 0.125 0
1.625 0 0.125
1.625 0 0.25
1.625 0.125 0.25
1.625 0.25 0.125
1.625 0.25 0
1.625 0.125 0
1.625 0 0
1.75 0 0.125
1.75 0.125 0
1.75 0.125 0.125
1.75 0.125 0.25
1.625 0.25 0.25
1.75 0.25 0.125
1.875 0 0
1.875 0 0.125
1.875 0.125 0
1.875 0.125 0.25
1.875 0.25 0.25
1.875 0.25 0.125
2 0 0.125
1.875 0 0.25
2 0.125 0.125
2 0.125 0.25
2 0.25 0.125
1.875 0.25 0
2 0.125 0
2.125 0 0.125
2.125 0 0.25
2.125 0.125 0.25
2.125 0.25 0.125
2.125 0.25 0
2.125 0.125 0
2.125 0 0
2.25 0 0.125
2.25 0.125 0
2.25 0.125 0.125
2.25 0.125 0.25
2.125 0.25 0.25
2.25 0.25 0.125
2.375 0 0
2.375 0 0.125
2.375 0.125 0
2.375 0.125 0.25
2.375 0.25 0.25
2.375 0.25 0.125
2.5 0 0.125
2.375 0 0.25
2.5 0.125 0.125
2.5 0.125 0.25
2.5 0.25 0.125
2.375 0.25 0
2.5 0.125 0
2.625 0 0.125
2.625 0 0.25
2.625 0.125 0.25
2.625 0.25 0.125
2.625 0.25 0
2.625 0.125 0
2.625 0 0
2.75 0 0.125
2.75 0.125 0
2.75 0.125 0.125
2.75 0.125 0.25
2.625 0.25 0.25
2.75 0.25 0.125
2.875 0 0
2.875 0 0.125
2.875 0.125 0
2.875 0.125 0.25
2.875 0.25 0.25
2.875 0.25 0.125
3 0 0.125
2.875 0 0.25
3 0.125 0.125
3 0.125 0.25
3 0.25 0.125
2.875 0.25 0
3 0.125 0
3.125 0 0.125
3.125 0 0.25
3.125 0.125 0.25
3.125 0.25 0.125
3.125 0.25 0
3.125 0.125 0
3.125 0 0
3.25 0 0.125
3.25 0.125 0
3.25 0.125 0.125
3.25 0.125 0.25
3.125 0.25 0.25
3.25 0.25 0.125
3.375 0 0
3.375 0 0.125
3.375 0.125 0
3.375 0.125 0.25
3.375 0.25 0.25
3.375 0.25 0.125
3.5 0 0.125
3.375 0 0.25
3.5 0.125 0.125
3.5 0.125 0.25
3.5 0.25 0.125
3.375 0.25 0
3.5 0.125 0
3.625 0 0.125
3.625 0 0.25
3.625 0.125 0.25
3.625 0.25 0.125
3.625 0.25 0
3.625 0.125 0
3.625 0 0
3.75 0 0.125
3.75 0.125 0
3.75 0.125 0.125
3.75 0.125 0.25
3.625 0.25 0.25
3.75 0.25 0.125
3.875 0 0
3.875 0 0.125
3.875 0.125 0
3.875 0.125 0.25
3.875 0.25 0.25
3.875 0.25 0.125
4 0 0.125
3.875 0 0.25
4 0.125 0.125
4 0.125 0.25
4 0.25 0.125
3.875 0.25 0
4 0.125 0
0 0.375 0.125
0 0.375 0
0.125 0.375 0
0 0.375 0.25
0 0.5 0.125
0.125 0.375 0.25
0.125 0.5 0.25
0.125 0.5 0.125
0.25 0.375 0.125
0.25 0.375 0.25
0.25 0.5 0.125
0.125 0.5 0
0.25 0.375 0
0.375 0.375 0.25
0.375 0.5 0.125
0.375 0.5 0
0.375 0.375 0
0.5 0.375 0
0.5 0.375 0.125
0.5 0.375 0.25
0.375 0.5 0.25
0.5 0.5 0.125
0.625 0.375 0
0.625 0.375 0.25
0.625 0.5 0.25
0.625 0.5 0.125
0.75 0.375 0.125
0.75 0.375 0.25
0.75 0.5 0.125
0.625 0.5 0
0.75 0.375 0
0.875 0.375 0.25
0.875 0.5 0.125
0.875 0.5 0
0.875 0.375 0
1 0.375 0
1 0.375 0.125
1 0.375 0.25
0.875 0.5 0.25
1 0.5 0.125
1.125 0.375 0
1.125 0.375 0.25
1.125 0.5 0.25
1.125 0.5 0.125
1.25 0.375 0.125
1.25 0.375 0.25
1.25 0.5 0.125
1.125 0.5 0
1.25 0.375 0
1.375 0.375 0.25
1.375 0.5 0.125
1.375 0.5 0
1.375 0.375 0
1.5 0.375 0
1.5 0.375 0.125
1.5 0.375 0.25
1.375 0.5 0.25
1.5 0.5 0.125
1.625 0.375 0
1.625 0.375 0.25
1.625 0.5 0.25
1.625 0.5 0.125
1.75 0.375 0.125
1.75 0.375 0.25
1.75 0.5 0.125
1.625 0.5 0
1.75 0.375 0
1.875 0.375 0.25
1.875 0.5 0.125
1.875 0.5 0
1.875 0.375 0
2 0.375 0
2 0.375 0.125
2 0.375 0.25
1.875 0.5 0.25
2 0.5 0.125
2.125 0.375 0
2.125 0.375 0.25
2.125 0.5 0.25
2.125 0.5 0.125
2.25 0.375 0.125
2.25 0.375 0.25
2.25 0.5 0.125
2.125 0.5 0
2.25 0.375 0
2.375 0.375 0.25
2.375 0.5 0.125
2.375 0.5 0
2.375 0.375 0
2.5 0.375 0
2.5 0.375 0.125
2.5 0.375 0.25
2.375 0.5 0.25
2.5 0.5 0.125
2.625 0.375 0
2.625 0.375 0.25
2.625 0.5 0.25
2.625 0.5 0.125
2.75 0.375 0.125
2.75 0.375 0.25
2.75 0.5 0.125
2.625 0.5 0
2.75 0.375 0
2.875 0.375 0.25
2.875 0.5 0.125
2.875 0.5 0
2.875 0.375 0
3 0.375 0
3 0.375 0.125
3 0.375 0.25
2.875 0.5 0.25
3 0.5 0.125
3.125 0.375 0
3.125 0.375 0.25
3.125 0.5 0.25
3.125 0.5 0.125
3.25 0.375 0.125
3.25 0.375 0.25
3.25 0.5 0.125
3.125 0.5 0
3.25 0.375 0
3.375 0.375 0.25
3.375 0.5 0.125
3.375 0.5 0
3.375 0.375 0
3.5 0.375 0
3.5 0.375 0.125
3.5 0.375 0.25
3.375 0.5 0.25
3.5 0.5 0.125
3.625 0.375 0
3.625 0.375 0.25
3.625 0.5 0.25
3.625 0.5 0.125
3.75 0.375 0.125
3.75 0.375 0.25
3.75 0.5 0.125
3.625 0.5 0
3.75 0.375 0
3.875 0.375 0.25
3.875 0.5 0.125
3.875 0.5 0
3.875 0.375 0
4 0.375 0
4 0.375 0.125
4 0.375 0.25
3.875 0.5 0.25
4 0.5 0.125
0 0.625 0.25
0 0.625 0.125
0.125 0.625 0.25
[...]
POINT_DATA 2417
SCALARS weights float 1
LOOKUP_TABLE default
1.6276 0.325521 0.16276 0.813802 1.6276 0.325521 1.6276 0.406901 0.325521 0.325521 0.325521 0.813802 1.6276 0.325521 0.325521 0.16276 0.813802 0.813802 0.325521 0.813802 0.325521 0.16276 0.16276 0.16276 0.325521 1.6276 0.813802 0.325521 0.325521 1.6276 0.16276 0.813802 1.6276 0.325521 0.813802 0.16276 0.16276 1.6276 0.16276 1.6276 1.6276 1.6276 0.813802 1.6276 0.325521 0.325521 0.16276 0.813802 0.325521 0.325521 0.813802 1.6276 0.813802 0.813802 0.16276 0.813802 0.406901 0.16276 0.813802 1.6276 0.325521 0.325521 0.16276 1.6276 1.6276 0.325521 0.813802 0.406901 0.16276 0.16276 1.6276 1.6276 0.325521 0.16276 0.325521 0.325521 1.6276 1.6276 1.6276 0.325521 0.16276 1.6276 0.16276 0.325521 0.325521 1.6276 0.325521 0.325521 0.813802 1.6276 0.16276 0.325521 0.406901 1.6276 0.325521 0.16276 1.6276 1.6276 0.325521 0.325521 1.6276 0.325521 0.16276 1.6276 1.6276 0.813802 1.6276 0.325521 1.6276 0.325521 0.325521 1.6276 1.6276 0.325521 0.325521 1.6276 1.6276 0.325521 0.325521 1.6276 1.6276 0.325521 0.325521 1.6276 1.6276 0.325521 0.325521 1.6276 1.6276 0.325521 0.325521 1.6276 1.6276 0.325521 0.813802 1.6276 0.813802 0.325521 0.406901 0.16276 0.325521 1.6276 0.16276 1.6276 0.813802 0.325521 0.16276 1.6276 0.813802 0.325521 0.16276 1.6276 0.813802 0.325521 0.16276 1.6276 0.813802 0.325521 0.16276 1.6276 0.813802 0.325521 0.16276 1.6276 0.813802 0.325521 0.16276 1.6276 0.813802 0.325521 0.16276 1.6276 0.325521 0.16276 0.406901 0.16276 1.6276 1.6276 0.325521 0.325521 1.6276 1.6276 0.325521 0.325521 1.6276 1.6276 0.325521 0.325521 1.6276 1.6276 0.325521 0.325521 1.6276 1.6276 0.325521 0.325521 1.6276 1.6276 0.325521 1.6276 1.6276 0.325521 0.406901 1.6276 1.6276 1.6276 0.16276 0.651042 3.25521 0.651042 3.25521 0.651042 3.25521 0.651042 3.25521 0.651042 3.25521 0.651042 3.25521 0.651042 3.25521 0.651042 0.325521 0.16276 3.25521 0.651042 3.25521 0.651042 3.25521 0.651042 3.25521 0.651042 3.25521 0.651042 3.25521 0.651042 3.25521 0.651042 3.25521 1.6276 1.6276 0.651042 3.25521 0.651042 3.25521 0.651042 3.25521 0.651042 3.25521 0.651042 3.25521 0.651042 3.25521 0.651042 3.25521 0.651042 0.813802 0.16276 0.16276 1.6276 0.325521 0.813802 1.6276 0.16276 0.325521 0.813802 1.6276 0.16276 0.325521 0.813802 1.6276 0.16276 0.325521 0.813802 1.6276 0.16276 0.325521 0.813802 1.6276 0.16276 0.325521 0.813802 1.6276 0.16276 0.325521 0.813802 1.6276 0.16276 0.325521 1.6276 0.325521 0.406901 3.25521 0.651042 3.25521 0.651042 3.25521 0.651042 3.25521 0.651042 3.25521 0.651042 3.25521 0.651042 3.25521 0.651042 3.25521 1.6276 0.813802 0.651042 3.25521 0.651042 3.25521 0.651042 3.25521 0.651042 3.25521 0.651042 3.25521 0.651042 3.25521 0.651042 3.25521 0.651042 0.325521 0.325521 3.25521 0.651042 3.25521 0.651042 3.25521 0.651042 3.25521 0.651042 3.25521 0.651042 3.25521 0.651042 3.25521 0.651042 3.25521 0.16276 0.16276 0.16276 0.16276 1.6276 0.325521 0.325521 1.6276 1.6276 0.325521 0.325521 1.6276 1.6276 0.325521 0.325521 1.6276 1.6276 0.325521 0.325521 1.6276 1.6276 0.325521 0.325521 1.6276 1.6276 0.325521 0.325521 1.6276 1.6276 0.325521 0.325521 1.6276 1.6276 1.6276 1.6276 0.651042 3.25521 0.651042 3.25521 0.651042 3.25521 0.651042 3.25521 0.651042 3.25521 0.651042 3.25521 0.651042 3.25521 0.651042 0.325521 0.16276 3.25521 0.651042 3.25521 0.651042 3.25521 0.651042 3.25521 0.651042 3.25521 0.651042 3.25521 0.651042 3.25521 0.651042 3.25521 1.6276 1.6276 0.651042 3.25521 0.651042 3.25521 0.651042 3.25521 0.651042 3.25521 0.651042 3.25521 0.651042 3.25521 0.651042 3.25521 0.651042 0.325521 0.813802 1.30208 1.79036 0.813802 2.60417 0.651042 0.488281 3.09245 0.813802 1.46484 0.325521 0.813802 0.651042 2.92969 1.46484 1.79036 1.46484 0.488281 1.30208 1.6276 3.25521 1.46484 3.09245 0.651042 0.813802 2.92969 1.46484 1.46484 0.813802 0.813802 1.79036 0.813802 2.92969 3.09245 0.813802 1.46484 0.325521 0.813802 0.651042 2.92969 1.46484 1.79036 1.46484 0.488281 1.30208 1.6276 3.25521 1.46484 3.09245 0.651042 0.813802 2.92969 1.46484 1.46484 0.813802 0.813802 1.79036 0.813802 2.92969 3.09245 0.813802 1.46484 0.325521 0.813802 0.651042 2.92969 1.46484 1.79036 1.46484 0.488281 1.30208 1.6276 3.25521 1.46484 3.09245 0.651042 0.813802 2.92969 1.46484 1.46484 0.813802 0.813802 1.79036 0.813802 2.92969 3.09245 0.813802 1.46484 0.325521 0.813802 0.651042 2.92969 1.46484 1.79036 1.46484 0.488281 1.30208 1.6276 3.25521 1.46484 3.09245 0.651042 0.813802 2.92969 1.46484 1.46484 0.813802 0.813802 1.79036 0.813802 2.92969 3.09245 0.813802 1.46484 0.325521 0.813802 0.651042 2.92969 1.46484 1.79036 1.46484 0.488281 1.30208 1.6276 3.25521 1.46484 3.09245 0.651042 0.813802 2.92969 1.46484 1.46484 0.813802 0.813802 1.79036 0.813802 2.92969 3.09245 0.813802 1.46484 0.325521 0.813802 0.651042 2.92969 1.46484 1.79036 1.46484 0.488281 1.30208 1.6276 3.25521 1.46484 3.09245 0.651042 0.813802 2.92969 1.46484 1.46484 0.813802 0.813802 1.79036 0.813802 2.92969 3.09245 0.813802 1.46484 0.325521 0.813802 0.651042 2.92969 1.46484 1.79036 1.46484 0.488281 1.30208 1.6276 3.25521 1.46484 3.09245 0.651042 0.813802 2.92969 1.46484 1.46484 0.813802 0.813802 1.79036 0.813802 2.92969 3.09245 0.813802 1.46484 0.325521 0.813802 0.651042 2.92969 1.46484 1.79036 1.46484 0.488281 1.30208 1.6276 3.25521 1.46484 3.09245 0.325521 0.813802 1.6276 0.651042 0.813802 0.813802 0.325521 1.79036 0.325521 1.30208 0.813802 0.813802 3.25521 1.46484 2.76693 3.25521 1.46484 1.46484 0.813802 0.813802 2.92969 3.09245 0.813802 1.46484 0.651042 2.92969 1.46484 1.79036 1.46484 1.6276 3.25521 1.46484 3.09245 2.92969 1.46484 1.46484 0.813802 0.813802 2.92969 3.09245 0.813802 1.46484 0.651042 2.92969 1.46484 1.79036 1.46484 1.6276 3.25521 1.46484 3.09245 2.92969 1.46484 1.46484 0.813802 0.813802 2.92969 3.09245 0.813802 1.46484 0.651042 2.92969 1.46484 1.79036 1.46484 1.6276 3.25521 1.46484 3.09245 2.92969 1.46484 1.46484 0.813802 0.813802 2.92969 3.09245 0.813802 1.46484 0.651042 2.92969 1.46484 1.79036 1.46484 1.6276 3.25521 1.46484 3.09245 2.92969 1.46484 1.46484 0.813802 0.813802 2.92969 3.09245 0.813802 1.46484 0.651042 2.92969 1.46484 1.79036 1.46484 1.6276 3.25521 1.46484 3.09245 2.92969 1.46484 1.46484 0.813802 0.813802 2.92969 3.09245 0.813802 1.46484 0.651042 2.92969 1.46484 1.79036 1.46484 1.6276 3.25521 1.46484 3.09245 2.92969 1.46484 1.46484 0.813802 0.813802 2.92969 3.09245 0.813802 1.46484 0.651042 2.92969 1.46484 1.79036 1.46484 1.6276 3.25521 1.46484 3.09245 2.92969 1.46484 1.46484 0.813802 0.813802 2.92969 3.09245 0.813802 1.46484 0.325521 1.46484 0.651042 1.79036 0.651042 0.813802 1.30208 2.92969 0.651042 0.488281 2.76693 0.813802 1.79036 0.651042 2.92969 1.46484 1.79036 1.46484 1.6276 3.25521 1.46484 3.09245 2.92969 1.46484 1.46484 0.813802 0.813802 2.92969 3.09245 0.813802 1.46484 0.651042 2.92969 1.46484 1.79036 1.46484 1.6276 3.25521 1.46484 3.09245 2.92969 1.46484 1.46484 0.813802 0.813802 2.92969 3.09245 0.813802 1.46484 0.651042 2.92969 1.46484 1.79036 1.46484 1.6276 3.25521 1.46484 3.09245 2.92969 1.46484 1.46484 0.813802 0.813802 2.92969 3.09245 0.813802 1.46484 0.651042 2.92969 1.46484 1.79036 1.46484 1.6276 3.25521 1.46484 3.09245 2.92969 1.46484 1.46484 0.813802 0.813802 2.92969 3.09245 0.813802 1.46484 0.651042 2.92969 1.46484 1.79036 1.46484 1.6276 3.25521 1.46484 3.09245 2.92969 1.46484 1.46484 0.813802 0.813802 2.92969 3.09245 0.813802 1.46484 0.651042 2.92969 1.46484 1.79036 1.46484 1.6276 3.25521 1.46484 3.09245 2.92969 1.46484 1.46484 0.813802 0.813802 2.92969 3.09245 0.813802 1.46484 0.651042 2.92969 1.46484 1.79036 1.46484 1.6276 3.25521 1.46484 3.09245 2.92969 1.46484 1.46484 0.813802 0.813802 2.92969 3.09245 0.813802 1.46484 0.651042 2.92969 1.46484 1.79036 1.46484 1.6276 3.25521 1.46484 3.09245 1.6276 0.651042 0.813802 0.813802 0.325521 1.79036 0.325521 1.30208 0.813802 0.488281 3.25521 0.651042 1.30208 3.25521 1.46484 0.651042 0.488281 0.813802 2.92969 1.79036 0.325521 1.46484 0.651042 2.92969 1.46484 0.976562 0.813802 1.6276 3.25521 0.651042 1.30208 2.92969 1.46484 0.651042 0.488281 0.813802 2.92969 1.79036 0.325521 1.46484 0.651042 2.92969 1.46484 0.976562 0.813802 1.6276 3.25521 0.651042 1.30208 2.92969 1.46484 0.651042 0.488281 0.813802 2.92969 1.79036 0.325521 1.46484 0.651042 2.92969 1.46484 0.976562 0.813802 1.6276 3.25521 0.651042 1.30208 2.92969 1.46484 0.651042 0.488281 0.813802 2.92969 1.79036 0.325521 1.46484 0.651042 2.92969 1.46484 0.976562 0.813802 1.6276 3.25521 0.651042 1.30208 2.92969 1.46484 0.651042 0.488281 0.813802 2.92969 1.79036 0.325521 1.46484 0.651042 2.92969 1.46484 0.976562 0.813802 1.6276 3.25521 0.651042 1.30208 2.92969 1.46484 0.651042 0.488281 0.813802 2.92969 1.79036 0.325521 1.46484 0.651042 2.92969 1.46484 0.976562 0.813802 1.6276 3.25521 0.651042 1.30208 2.92969 1.46484 0.651042 0.488281 0.813802 2.92969 1.79036 0.325521 1.46484 0.651042 2.92969 1.46484 0.976562 0.813802 1.6276 3.25521 0.651042 1.30208 2.92969 1.46484 0.651042 0.488281 0.813802 2.92969 1.79036 0.325521 1.46484 0.325521 1.46484 0.651042 0.976562 0.325521 0.325521 1.46484 1.6276 0.813802 0.813802 2.92969 1.46484 3.09245 0.651042 0.813802 2.92969 1.46484 1.46484 1.79036 0.813802 2.92969 3.09245 0.813802 2.92969 1.46484 1.79036 1.46484 1.30208 3.25521 1.46484 3.09245 0.651042 0.813802 2.92969 1.46484 1.46484 1.79036 0.813802 2.92969 3.09245 0.813802 2.92969 1.46484 1.79036 1.46484 1.30208 3.25521 1.46484 3.09245 0.651042 0.813802 2.92969 1.46484 1.46484 1.79036 0.813802 2.92969 3.09245 0.813802 2.92969 1.46484 1.79036 1.46484 1.30208 3.25521 1.46484 3.09245 0.651042 0.813802 2.92969 1.46484 1.46484 1.79036 0.813802 2.92969 3.09245 0.813802 2.92969 1.46484 1.79036 1.46484 1.30208 3.25521 1.46484 3.09245 0.651042 0.813802 2.92969 1.46484 1.46484 1.79036 0.813802 2.92969 3.09245 0.813802 2.92969 1.46484 1.79036 1.46484 1.30208 3.25521 1.46484 3.09245 0.651042 0.813802 2.92969 1.46484 1.46484 1.79036 0.813802 2.92969 3.09245 0.813802 2.92969 1.46484 1.79036 1.46484 1.30208 3.25521 1.46484 3.09245 0.651042 0.813802 2.92969 1.46484 1.46484 1.79036 0.813802 2.92969 3.09245 0.813802 2.92969 1.46484 1.79036 1.46484 1.30208 3.25521 1.46484 3.09245 0.651042 0.813802 2.92969 1.46484 1.46484 1.79036 0.813802 2.92969 3.09245 0.488281 1.46484 0.651042 1.79036 0.651042 0.813802 1.30208 2.92969 0.651042 2.76693 2.92969 1.46484 1.79036 1.46484 3.25521 1.46484 3.09245 2.92969 1.46484 1.46484 2.92969 3.09245 2.92969 1.46484 1.79036 1.46484 3.25521 1.46484 3.09245 2.92969 1.46484 1.46484 2.92969 3.09245 2.92969 1.46484 1.79036 1.46484 3.25521 1.46484 3.09245 2.92969 1.46484 1.46484 2.92969 3.09245 2.92969 1.46484 1.79036 1.46484 3.25521 1.46484 3.09245 2.92969 1.46484 1.46484 2.92969 3.09245 2.92969 1.46484 1.79036 1.46484 3.25521 1.46484 3.09245 2.92969 1.46484 1.46484 2.92969 3.09245 2.92969 1.46484 1.79036 1.46484 3.25521 1.46484 3.09245 2.92969 1.46484 1.46484 2.92969 3.09245 2.92969 1.46484 1.79036 1.46484 3.25521 1.46484 3.09245 2.92969 1.46484 1.46484 2.92969 3.09245 2.92969 1.46484 1.79036 1.46484 3.25521 1.46484 3.09245 1.6276 0.651042 0.813802 1.79036 0.813802 0.813802 3.25521 1.46484 2.76693 3.25521 1.46484 1.46484 2.92969 3.09245 2.92969 1.46484 1.79036 1.46484 3.25521 1.46484 3.09245 2.92969 1.46484 1.46484 2.92969 3.09245 2.92969 1.46484 1.79036 1.46484 3.25521 1.46484 3.09245 2.92969 1.46484 1.46484 2.92969 3.09245 2.92969 1.46484 1.79036 1.46484 3.25521 1.46484 3.09245 2.92969 1.46484 1.46484 2.92969 3.09245 2.92969 1.46484 1.79036 1.46484 3.25521 1.46484 3.09245 2.92969 1.46484 1.46484 2.92969 3.09245 2.92969 1.46484 1.79036 1.46484 3.25521 1.46484 3.09245 2.92969 1.46484 1.46484 2.92969 3.09245 2.92969 1.46484 1.79036 1.46484 3.25521 1.46484 3.09245 2.92969 1.46484 1.46484 2.92969 3.09245 2.92969 1.46484 1.79036 1.46484 3.25521 1.46484 3.09245 2.92969 1.46484 1.46484 2.92969 3.09245 1.46484 0.651042 1.79036 0.651042 0.813802 1.30208 2.92969 0.325521 1.46484 2.92969 1.46484 0.976562 0.813802 3.25521 0.651042 1.30208 2.92969 1.46484 0.651042 2.92969 1.79036 2.92969 1.46484 0.976562 0.813802 3.25521 0.651042 1.30208 2.92969 1.46484 0.651042 2.92969 1.79036 2.92969 1.46484 0.976562 0.813802 3.25521 0.651042 1.30208 2.92969 1.46484 0.651042 2.92969 1.79036 2.92969 1.46484 0.976562 0.813802 3.25521 0.651042 1.30208 2.92969 1.46484 0.651042 2.92969 1.79036 2.92969 1.46484 0.976562 0.813802 3.25521 0.651042 1.30208 2.92969 1.46484 0.651042 2.92969 1.79036 2.92969 1.46484 0.976562 0.813802 3.25521 0.651042 1.30208 2.92969 1.46484 0.651042 2.92969 1.79036 2.92969 1.46484 0.976562 0.813802 3.25521 0.651042 1.30208 2.92969 1.46484 0.651042 2.92969 1.79036 2.92969 1.46484 0.976562 0.813802 3.25521 0.651042 1.30208 1.6276 0.651042 0.325521 0.325521 0.813802 1.6276 1.46484 0.813802 2.60417 0.651042 2.76693 0.813802 3.25521 1.46484 1.79036 1.46484 1.30208 3.25521 1.46484 3.09245 0.651042 0.813802 2.92969 1.46484 1.46484 1.79036 0.813802 2.92969 3.09245 0.813802 2.92969 1.46484 1.79036 1.46484 1.30208 3.25521 1.46484 3.09245 0.651042 0.813802 2.92969 1.46484 1.46484 1.79036 0.813802 2.92969 3.09245 0.813802 2.92969 1.46484 1.79036 1.46484 1.30208 3.25521 1.46484 3.09245 0.651042 0.813802 2.92969 1.46484 1.46484 1.79036 0.813802 2.92969 3.09245 0.813802 2.92969 1.46484 1.79036 1.46484 1.30208 3.25521 1.46484 3.09245 0.651042 0.813802 2.92969 1.46484 1.46484 1.79036 0.813802 2.92969 3.09245 0.813802 2.92969 1.46484 1.79036 1.46484 1.30208 3.25521 1.46484 3.09245 0.651042 0.813802 2.92969 1.46484 1.46484 1.79036 0.813802 2.92969 3.09245 0.813802 2.92969 1.46484 1.79036 1.46484 1.30208 3.25521 1.46484 3.09245 0.651042 0.813802 2.92969 1.46484 1.46484 1.79036 0.813802 2.92969 3.09245 0.813802 2.92969 1.46484 1.79036 1.46484 1.30208 3.25521 1.46484 3.09245 0.651042 0.813802 2.92969 1.46484 1.46484 1.79036 0.813802 2.92969 3.09245 0.813802 2.92969 1.46484 1.79036 1.46484 1.30208 3.25521 1.46484 3.09245 0.325521 0.813802 1.6276 0.651042 0.813802 1.79036 0.813802 0.813802 3.25521 1.46484 2.76693 3.25521 1.46484 1.46484 2.92969 3.09245 2.92969 1.46484 1.79036 1.46484 3.25521 1.46484 3.09245 2.92969 1.46484 1.46484 2.92969 3.09245 2.92969 1.46484 1.79036 1.46484 3.25521 1.46484 3.09245 2.92969 1.46484 1.46484 2.92969 3.09245 2.92969 1.46484 1.79036 1.46484 3.25521 1.46484 3.09245 2.92969 1.46484 1.46484 2.92969 3.09245 2.92969 1.46484 1.79036 1.46484 3.25521 1.46484 3.09245 2.92969 1.46484 1.46484 2.92969 3.09245 2.92969 1.46484 1.79036 1.46484 3.25521 1.46484 3.09245 2.92969 1.46484 1.46484 2.92969 3.09245 2.92969 1.46484 1.79036 1.46484 3.25521 1.46484 3.09245 2.92969 1.46484 1.46484 2.92969 3.09245 2.92969 1.46484 1.79036 1.46484 3.25521 1.46484 3.09245 2.92969 1.46484 1.46484 2.92969 3.09245 1.46484 0.651042 1.79036 0.651042 0.813802 1.30208 2.92969 0.651042 2.76693 2.92969 1.46484 1.79036 1.46484 3.25521 1.46484 3.09245 2.92969 1.46484 1.46484 2.92969 3.09245 2.92969 1.46484 1.79036 1.46484 3.25521 1.46484 3.09245 2.92969 1.46484 1.46484 2.92969 3.09245 2.92969 1.46484 1.79036 1.46484 3.25521 1.46484 3.09245 2.92969 1.46484 1.46484 2.92969 3.09245 2.92969 1.46484 1.79036 1.46484 3.25521 1.46484 3.09245 2.92969 1.46484 1.46484 2.92969 3.09245 2.92969 1.46484 1.79036 1.46484 3.25521 1.46484 3.09245 2.92969 1.46484 1.46484 2.92969 3.09245 2.92969 1.46484 1.79036 1.46484 3.25521 1.46484 3.09245 2.92969 1.46484 1.46484 2.92969 3.09245 2.92969 1.46484 1.79036 1.46484 3.25521 1.46484 3.09245 2.92969 1.46484 1.46484 2.92969 3.09245 2.92969 1.46484 1.79036 1.46484 3.25521 1.46484 3.09245 1.6276 0.651042 0.813802 1.79036 0.813802 0.488281 3.25521 0.651042 1.30208 3.25521 1.46484 0.651042 2.92969 1.79036 2.92969 1.46484 0.976562 0.813802 3.25521 0.651042 1.30208 2.92969 1.46484 0.651042 2.92969 1.79036 2.92969 1.46484 0.976562 0.813802 3.25521 0.651042 1.30208 2.92969 1.46484 0.651042 2.92969 1.79036 2.92969 1.46484 0.976562 0.813802 3.25521 0.651042 1.30208 2.92969 1.46484 0.651042 2.92969 1.79036 2.92969 1.46484 0.976562 0.813802 3.25521 0.651042 1.30208 2.92969 1.46484 0.651042 2.92969 1.79036 2.92969 1.46484 0.976562 0.813802 3.25521 0.651042 1.30208 2.92969 1.46484 0.651042 2.92969 1.79036 2.92969 1.46484 0.976562 0.813802 3.25521 0.651042 1.30208 2.92969 1.46484 0.651042 2.92969 1.79036 2.92969 1.46484 0.976562 0.813802 3.25521 0.651042 1.30208 2.92969 1.46484 0.651042 2.92969 1.79036 1.46484 0.651042 0.976562 0.325521 0.325521 1.46484 1.6276 0.325521 0.813802 1.46484 0.651042 3.09245 0.651042 0.488281 2.92969 0.813802 1.46484 1.79036 0.325521 1.30208 3.09245 0.813802 2.92969 0.651042 0.976562 1.46484 1.30208 1.79036 0.651042 3.09245 0.651042 0.488281 2.92969 0.813802 1.46484 1.79036 0.325521 1.30208 3.09245 0.813802 2.92969 0.651042 0.976562 1.46484 1.30208 1.79036 0.651042 3.09245 0.651042 0.488281 2.92969 0.813802 1.46484 1.79036 0.325521 1.30208 3.09245 0.813802 2.92969 0.651042 0.976562 1.46484 1.30208 1.79036 0.651042 3.09245 0.651042 0.488281 2.92969 0.813802 1.46484 1.79036 0.325521 1.30208 3.09245 0.813802 2.92969 0.651042 0.976562 1.46484 1.30208 1.79036 0.651042 3.09245 0.651042 0.488281 2.92969 0.813802 1.46484 1.79036 0.325521 1.30208 3.09245 0.813802 2.92969 0.651042 0.976562 1.46484 1.30208 1.79036 0.651042 3.09245 0.651042 0.488281 2.92969 0.813802 1.46484 1.79036 0.325521 1.30208 3.09245 0.813802 2.92969 0.651042 0.976562 1.46484 1.30208 1.79036 0.651042 3.09245 0.651042 0.488281 2.92969 0.813802 1.46484 1.79036 0.325521 1.30208 3.09245 0.813802 2.92969 0.651042 0.976562 1.46484 1.30208 1.79036 0.651042 3.09245 0.651042 0.488281 2.92969 0.813802 1.46484 1.79036 0.325521 1.30208 3.09245 0.488281 1.46484 0.325521 0.976562 0.651042 0.488281 1.30208 1.6276 0.651042 2.76693 2.92969 0.651042 0.976562 1.46484 1.79036 0.651042 3.09245 2.92969 0.813802 1.46484 1.30208 3.09245 2.92969 0.651042 0.976562 1.46484 1.79036 0.651042 3.09245 2.92969 0.813802 1.46484 1.30208 3.09245 2.92969 0.651042 0.976562 1.46484 1.79036 0.651042 3.09245 2.92969 0.813802 1.46484 1.30208 3.09245 2.92969 0.651042 0.976562 1.46484 1.79036 0.651042 3.09245 2.92969 0.813802 1.46484 1.30208 3.09245 2.92969 0.651042 0.976562 1.46484 1.79036 0.651042 3.09245 2.92969 0.813802 1.46484 1.30208 3.09245 2.92969 0.651042 0.976562 1.46484 1.79036 0.651042 3.09245 2.92969 0.813802 1.46484 1.30208 3.09245 2.92969 0.651042 0.976562 1.46484 1.79036 0.651042 3.09245 2.92969 0.813802 1.46484 1.30208 3.09245 2.92969 0.651042 0.976562 1.46484 1.79036 0.651042 3.09245 1.6276 0.325521 0.813802 1.79036 0.325521 0.813802 1.46484 0.651042 2.76693 3.25521 0.813802 1.46484 1.30208 3.09245 2.92969 0.651042 0.976562 1.46484 1.79036 0.651042 3.09245 2.92969 0.813802 1.46484 1.30208 3.09245 2.92969 0.651042 0.976562 1.46484 1.79036 0.651042 3.09245 2.92969 0.813802 1.46484 1.30208 3.09245 2.92969 0.651042 0.976562 1.46484 1.79036 0.651042 3.09245 2.92969 0.813802 1.46484 1.30208 3.09245 2.92969 0.651042 0.976562 1.46484 1.79036 0.651042 3.09245 2.92969 0.813802 1.46484 1.30208 3.09245 2.92969 0.651042 0.976562 1.46484 1.79036 0.651042 3.09245 2.92969 0.813802 1.46484 1.30208 3.09245 2.92969 0.651042 0.976562 1.46484 1.79036 0.651042 3.09245 2.92969 0.813802 1.46484 1.30208 3.09245 2.92969 0.651042 0.976562 1.46484 1.79036 0.651042 3.09245 2.92969 0.813802 1.46484 1.30208 3.09245 1.46484 0.325521 0.976562 0.651042 0.488281 1.30208 1.6276 0.325521 1.46484 2.92969 0.651042 0.488281 0.813802 1.79036 0.325521 1.30208 2.92969 0.813802 0.651042 1.30208 1.79036 2.92969 0.651042 0.488281 0.813802 1.79036 0.325521 1.30208 2.92969 0.813802 0.651042 1.30208 1.79036 2.92969 0.651042 0.488281 0.813802 1.79036 0.325521 1.30208 2.92969 0.813802 0.651042 1.30208 1.79036 2.92969 0.651042 0.488281 0.813802 1.79036 0.325521 1.30208 2.92969 0.813802 0.651042 1.30208 1.79036 2.92969 0.651042 0.488281 0.813802 1.79036 0.325521 1.30208 2.92969 0.813802 0.651042 1.30208 1.79036 2.92969 0.651042 0.488281 0.813802 1.79036 0.325521 1.30208 2.92969 0.813802 0.651042 1.30208 1.79036 2.92969 0.651042 0.488281 0.813802 1.79036 0.325521 1.30208 2.92969 0.813802 0.651042 1.30208 1.79036 2.92969 0.651042 0.488281 0.813802 1.79036 0.3255